[Molden Format]
[Title]
 Molden file created by orca_2mkl for BaseName=D:\hty\creat\code\github\orcacal\Test\ORCA_cal\ORCA_structure\H2O_1\input

[Atoms] AU
C    1   6         -0.0000755890        -0.0122756610         0.2524031608 
Cl   2  17         -0.0905745736         3.2048281245        -0.7124947826 
Cl   3  17         -2.6965409273        -1.6177586385        -0.9477902527 
Cl   4  17          2.7878940681        -1.4606940508        -0.9385116974 
H    5   1         -0.0007029781        -0.1141016640         2.3463916823 
[GTO]
  1 0
s   5 1.0 
     1238.4016938000         0.8208956682
      186.2900499200         1.4766449896
       42.2511763460         2.1526124058
       11.6765579320         2.1081722461
        3.5930506482         0.8290999933
s   1 1.0 
        0.4024514736         0.3601183351
s   1 1.0 
        0.1309018267         0.1551027052
p   3 1.0 
        9.4680970621         1.3467645142
        2.0103545142         1.0678070931
        0.5477100471         0.5108735714
p   1 1.0 
        0.1526861379         0.1360471976
d   1 1.0 
        0.8000000000         1.9292013661

  2 0
s   5 1.0 
    10449.8275660000         3.9973241313
     1571.7365221000         7.2277480961
      357.1206552300        10.7494942607
      100.2518593500        10.7118498358
       30.8127275540         4.0765111022
s   3 1.0 
       51.9237894340        -1.2786987774
        5.7045760975         1.4832318965
        2.3508376809         0.6815120566
s   1 1.0 
        0.4460512467         0.3889991572
s   1 1.0 
        0.1684885619         0.1874294841
p   5 1.0 
      307.6679056900       -16.3095226390
       72.1020155150       -19.2520828188
       22.5326802620       -16.9965641132
        7.8991765444        -9.1249716393
        2.8767268321        -2.0801728153
p   1 1.0 
        0.7745936396         1.0358157160
p   1 1.0 
        0.2103769970         0.2030897020
d   1 1.0 
        0.6500000000         1.3414313681

  3 0
s   5 1.0 
    10449.8275660000         3.9973241313
     1571.7365221000         7.2277480961
      357.1206552300        10.7494942607
      100.2518593500        10.7118498358
       30.8127275540         4.0765111022
s   3 1.0 
       51.9237894340        -1.2786987774
        5.7045760975         1.4832318965
        2.3508376809         0.6815120566
s   1 1.0 
        0.4460512467         0.3889991572
s   1 1.0 
        0.1684885619         0.1874294841
p   5 1.0 
      307.6679056900       -16.3095226390
       72.1020155150       -19.2520828188
       22.5326802620       -16.9965641132
        7.8991765444        -9.1249716393
        2.8767268321        -2.0801728153
p   1 1.0 
        0.7745936396         1.0358157160
p   1 1.0 
        0.2103769970         0.2030897020
d   1 1.0 
        0.6500000000         1.3414313681

  4 0
s   5 1.0 
    10449.8275660000         3.9973241313
     1571.7365221000         7.2277480961
      357.1206552300        10.7494942607
      100.2518593500        10.7118498358
       30.8127275540         4.0765111022
s   3 1.0 
       51.9237894340        -1.2786987774
        5.7045760975         1.4832318965
        2.3508376809         0.6815120566
s   1 1.0 
        0.4460512467         0.3889991572
s   1 1.0 
        0.1684885619         0.1874294841
p   5 1.0 
      307.6679056900       -16.3095226390
       72.1020155150       -19.2520828188
       22.5326802620       -16.9965641132
        7.8991765444        -9.1249716393
        2.8767268321        -2.0801728153
p   1 1.0 
        0.7745936396         1.0358157160
p   1 1.0 
        0.2103769970         0.2030897020
d   1 1.0 
        0.6500000000         1.3414313681

  5 0
s   3 1.0 
       13.0107010000         0.1634903809
        1.9622572000         0.2773515510
        0.4445379600         0.3157501452
s   1 1.0 
        0.1219496200         0.1470772262
p   1 1.0 
        0.8000000000         1.0784563492

[5D]
[7F]
[9G]
[MO]
 Sym=     1a
 Ene= -1.04818407633986E+02
 Spin= Alpha
 Occup= 2.000000
  1      -0.000000094960
  2       0.000001020992
  3      -0.000005446590
  4      -0.000007837032
  5      -0.000004428221
  6      -0.000000312119
  7       0.001282416160
  8       0.000725337063
  9       0.000036584429
 10       0.000003473233
 11       0.000080324861
 12       0.000040800027
 13       0.000044033204
 14       0.000087988322
 15      -0.378957575240
 16      -0.008428554852
 17       0.003629726129
 18      -0.002482055090
 19      -0.000015818239
 20      -0.000056363266
 21       0.000013768376
 22      -0.000079191611
 23      -0.000203988559
 24       0.000042814551
 25       0.000026237867
 26       0.000577959991
 27      -0.000161818500
 28       0.000035037332
 29      -0.000061175109
 30       0.000037427113
 31       0.000051914669
 32      -0.000004622021
 33       0.811676761867
 34       0.018052650387
 35      -0.007773757618
 36       0.005317634915
 37      -0.000100864359
 38      -0.000059517602
 39      -0.000038311073
 40      -0.000364939232
 41      -0.000214986532
 42      -0.000123645124
 43       0.001037970857
 44       0.000617111466
 45       0.000437409787
 46      -0.000063300534
 47       0.000084285686
 48       0.000055215443
 49       0.000050689542
 50       0.000090614997
 51      -0.430947359237
 52      -0.009584873016
 53       0.004127665890
 54      -0.002822633398
 55      -0.000063114042
 56       0.000014185675
 57       0.000019451256
 58      -0.000238113521
 59       0.000033087788
 60       0.000061537262
 61       0.000588285959
 62      -0.000260414718
 63      -0.000228489062
 64       0.000029761502
 65       0.000019307737
 66      -0.000075045880
 67      -0.000042843836
 68       0.000040650189
 69       0.000000438442
 70       0.000000208662
 71      -0.000041461259
 72      -0.000023451792
 73      -0.000001149356
 Sym=     1a
 Ene= -1.04818407560044E+02
 Spin= Alpha
 Occup= 2.000000
  1      -0.000000010750
  2       0.000000115353
  3      -0.000000616610
  4       0.000004438201
  5      -0.000007826955
  6      -0.000000390145
  7      -0.000726259169
  8       0.001280908091
  9       0.000062176513
 10       0.000006159495
 11      -0.000044972191
 12       0.000071120877
 13       0.000095386635
 14      -0.000039903012
 15      -0.717363263662
 16      -0.015955068222
 17       0.006870679973
 18      -0.004699301887
 19       0.000012185494
 20      -0.000105440610
 21       0.000026145966
 22       0.000055693670
 23      -0.000380043176
 24       0.000081451765
 25      -0.000053234208
 26       0.001091569714
 27      -0.000306632569
 28       0.000066738592
 29       0.000029609253
 30       0.000075040790
 31       0.000097137269
 32       0.000009427122
 33       0.030082671869
 34       0.000669069584
 35      -0.000288099425
 36       0.000197119231
 37       0.000006598939
 38      -0.000018956909
 39      -0.000002231765
 40       0.000036922138
 41      -0.000089717872
 42      -0.000008544806
 43       0.000013245664
 44       0.000063792131
 45       0.000018200473
 46      -0.000007134721
 47       0.000038752016
 48      -0.000054638526
 49      -0.000011447644
 50       0.000006960952
 51       0.687479902825
 52       0.015290410891
 53      -0.006584422747
 54       0.004503643036
 55       0.000083038155
 56      -0.000055187812
 57      -0.000032627214
 58       0.000293753396
 59      -0.000211682391
 60      -0.000105965577
 61      -0.000895853649
 62       0.000495190512
 63       0.000368546759
 64      -0.000056851198
 65      -0.000091657781
 66       0.000009373423
 67       0.000044480905
 68      -0.000074179527
 69       0.000000049408
 70       0.000000024445
 71       0.000023480563
 72      -0.000041412294
 73      -0.000002006734
 Sym=     1a
 Ene= -1.04818357127261E+02
 Spin= Alpha
 Occup= 2.000000
  1       0.000092188518
  2      -0.000991713065
  3       0.005289400251
  4      -0.000000034814
  5      -0.000004449494
  6       0.000091388877
  7       0.000001504143
  8       0.000044622921
  9      -0.000899175643
 10       0.000093509129
 11       0.000000028859
 12      -0.000007834807
 13      -0.000000135727
 14       0.000000088158
 15      -0.574397800343
 16      -0.012715300819
 17       0.005305162231
 18      -0.004195223234
 19       0.000001610560
 20      -0.000058426845
 21       0.000027082462
 22       0.000005103461
 23      -0.000186747275
 24       0.000095932185
 25      -0.000031374029
 26       0.001115924377
 27      -0.000320593678
 28       0.000046235638
 29      -0.000001566380
 30       0.000057426993
 31       0.000160426199
 32       0.000009091424
 33      -0.573086028422
 34      -0.012686125535
 35       0.005292599497
 36      -0.004186632697
 37       0.000048411173
 38       0.000028351807
 39       0.000031259300
 40       0.000154277124
 41       0.000089882314
 42       0.000109246366
 43      -0.000934243756
 44      -0.000556938067
 45      -0.000401555336
 46       0.000037747802
 47      -0.000065285092
 48      -0.000035910551
 49      -0.000072509792
 50      -0.000137618236
 51      -0.574288677983
 52      -0.012712873929
 53       0.005304117705
 54      -0.004194509716
 55      -0.000050221750
 56       0.000025597363
 57       0.000031148274
 58      -0.000160131986
 59       0.000081114608
 60       0.000108893429
 61       0.000967545606
 62      -0.000503310345
 63      -0.000398981409
 64       0.000038225206
 65       0.000066829073
 66      -0.000031799947
 67      -0.000088090849
 68       0.000128653311
 69      -0.000426010275
 70      -0.000202651573
 71      -0.000000039083
 72       0.000000136887
 73      -0.000003404458
 Sym=     1a
 Ene= -1.14303712209292E+01
 Spin= Alpha
 Occup= 2.000000
  1      -0.991277444755
  2      -0.034595659489
  3       0.025910188784
  4      -0.000000047314
  5      -0.000007735675
  6       0.000159068143
  7       0.000000370107
  8       0.000060256306
  9      -0.001238910135
 10      -0.000721108377
 11       0.000000374349
 12       0.000060806820
 13       0.000001476930
 14      -0.000000018840
 15       0.000066615369
 16      -0.000366405755
 17       0.001194691376
 18      -0.005239032717
 19       0.000002468814
 20      -0.000086500690
 21       0.000004933096
 22       0.000009753134
 23      -0.000339177844
 24      -0.000023594604
 25      -0.000058736991
 26       0.002055226333
 27      -0.000071165749
 28      -0.000251859404
 29       0.000014722602
 30      -0.000527083368
 31      -0.000655092743
 32      -0.000036658701
 33       0.000066615587
 34      -0.000366406908
 35       0.001194692297
 36      -0.005239029302
 37       0.000073377798
 38       0.000044722418
 39       0.000011335552
 40       0.000289510765
 41       0.000178537272
 42       0.000001665109
 43      -0.001745335309
 44      -0.001065986637
 45      -0.000223448325
 46      -0.000179461838
 47       0.000518781284
 48       0.000305367893
 49       0.000297527999
 50       0.000537446907
 51       0.000066615521
 52      -0.000366406572
 53       0.001194691909
 54      -0.005239028446
 55      -0.000075854717
 56       0.000040448551
 57       0.000011083080
 58      -0.000299257097
 59       0.000161675428
 60       0.000000669061
 61       0.001804225920
 62      -0.000964332749
 63      -0.000217444155
 64      -0.000182544722
 65      -0.000533185121
 66       0.000273481595
 67       0.000358826594
 68      -0.000500802905
 69       0.001335791988
 70      -0.005897073088
 71       0.000000242618
 72       0.000039405651
 73      -0.000810370606
 Sym=     1a
 Ene= -1.05822316697051E+01
 Spin= Alpha
 Occup= 2.000000
  1       0.000000402848
  2       0.000001167779
  3      -0.000006783703
  4      -0.000098966558
  5      -0.000049496506
  6      -0.000002635803
  7       0.000972997912
  8       0.000486691347
  9       0.000024659052
 10       0.000008745030
 11       0.000243864936
 12       0.000107331499
 13       0.000137777814
 14       0.000321794632
 15      -0.107334368316
 16       0.352941169061
 17       0.010699944434
 18      -0.003261416221
 19      -0.000064867379
 20       0.001469967099
 21      -0.000498657343
 22      -0.000111377891
 23      -0.000456820658
 24       0.000116987899
 25       0.000169061716
 26       0.000481910805
 27      -0.000102476824
 28      -0.000016350480
 29      -0.000049416039
 30      -0.000042716101
 31      -0.000060935133
 32      -0.000070348600
 33       0.254860599932
 34      -0.838043296873
 35      -0.025402425590
 36       0.007740278582
 37       0.002920257390
 38       0.001734673092
 39       0.001438896376
 40      -0.000908728180
 41      -0.000529205334
 42      -0.000356978368
 43       0.000959797655
 44       0.000555496405
 45       0.000327320465
 46       0.000025943413
 47      -0.000100686398
 48      -0.000052022299
 49      -0.000063562810
 50      -0.000131464396
 51      -0.146194962898
 52       0.480724182336
 53       0.014573437356
 54      -0.004441809380
 55       0.001722479974
 56      -0.000914981707
 57      -0.000820510829
 58      -0.000589213502
 59       0.000181091020
 60       0.000198315912
 61       0.000643076581
 62      -0.000151142074
 63      -0.000178824405
 64      -0.000017817760
 65      -0.000079812371
 66      -0.000006433222
 67      -0.000005597604
 68      -0.000102077129
 69       0.000000920063
 70      -0.000000518015
 71       0.000049164595
 72       0.000024589313
 73       0.000001310228
 Sym=     1a
 Ene= -1.05822315945726E+01
 Spin= Alpha
 Occup= 2.000000
  1       0.000000109511
  2       0.000000318475
  3      -0.000001848260
  4       0.000049566510
  5      -0.000098847258
  6      -0.000004846425
  7      -0.000487318617
  8       0.000971849102
  9       0.000047304210
 10       0.000018216782
 11      -0.000120348065
 12       0.000210642106
 13       0.000343990734
 14      -0.000126831546
 15      -0.231429498327
 16       0.760996005341
 17       0.023068440277
 18      -0.007029990783
 19      -0.000078015921
 20       0.003171436452
 21      -0.001075032006
 22       0.000085324926
 23      -0.000974666040
 24       0.000253044604
 25      -0.000113984859
 26       0.001023986512
 27      -0.000222351085
 28      -0.000035183261
 29       0.000025924465
 30      -0.000087854500
 31      -0.000141573723
 32       0.000023186092
 33       0.022556329943
 34      -0.074170693822
 35      -0.002248008603
 36       0.000684845149
 37       0.000272184026
 38       0.000131311276
 39       0.000126269182
 40      -0.000008184818
 41      -0.000163743641
 42      -0.000037277220
 43      -0.000021256646
 44       0.000221040419
 45       0.000037346133
 46      -0.000001259922
 47       0.000020172151
 48      -0.000045606798
 49      -0.000076150754
 50       0.000021451310
 51       0.209234696998
 52      -0.688014216622
 53      -0.020855477704
 54       0.006355213212
 55      -0.002486960181
 56       0.001269654182
 57       0.001172339352
 58       0.000728874989
 59      -0.000468996014
 60      -0.000294250174
 61      -0.000752218805
 62       0.000524802779
 63       0.000271454285
 64       0.000019276142
 65       0.000067364347
 66      -0.000065082984
 67      -0.000107089810
 68       0.000075138835
 69       0.000000250251
 70      -0.000000138747
 71      -0.000024623447
 72       0.000049106057
 73       0.000002407388
 Sym=     1a
 Ene= -1.05822108369843E+01
 Spin= Alpha
 Occup= 2.000000
  1       0.000163884913
  2       0.000474914985
  3      -0.002759720944
  4       0.000000234064
  5       0.000004119652
  6      -0.000080856432
  7      -0.000002150212
  8      -0.000015659270
  9       0.000284024615
 10      -0.000285708477
 11      -0.000000370678
 12       0.000023685841
 13       0.000000018216
 14      -0.000000712996
 15       0.181028276788
 16      -0.595320666807
 17      -0.017548559647
 18       0.005039051659
 19       0.000070850637
 20      -0.002521273055
 21       0.000831049485
 22      -0.000015062951
 23       0.000550161179
 24      -0.000251859567
 25       0.000013529849
 26      -0.000503883703
 27       0.000300371920
 28       0.000096164496
 29      -0.000001017755
 30       0.000035186012
 31       0.000096309555
 32       0.000005604905
 33       0.179968894122
 34      -0.591837160712
 35      -0.017442965173
 36       0.005006875548
 37       0.002097981127
 38       0.001245499517
 39       0.001009207848
 40      -0.000453781077
 41      -0.000265830846
 42      -0.000290297191
 43       0.000412205018
 44       0.000237964825
 45       0.000335321081
 46       0.000090196295
 47      -0.000044398927
 48      -0.000030454266
 49      -0.000043484224
 50      -0.000081768452
 51       0.180829728381
 52      -0.594667791479
 53      -0.017528770194
 54       0.005033022781
 55      -0.002179400948
 56       0.001128614032
 57       0.001006817293
 58       0.000472509252
 59      -0.000240807966
 60      -0.000289920798
 61      -0.000429787037
 62       0.000215348463
 63       0.000334981690
 64       0.000090554530
 65       0.000045762106
 66      -0.000027699776
 67      -0.000052856810
 68       0.000076837218
 69       0.000374551712
 70      -0.000210816948
 71      -0.000000116277
 72      -0.000002059921
 73       0.000040427575
 Sym=     1a
 Ene= -8.05719234056651E+00
 Spin= Alpha
 Occup= 2.000000
  1       0.000000059712
  2      -0.000002257536
  3       0.000025505008
  4      -0.000146093884
  5      -0.000072570486
  6      -0.000003326226
  7      -0.002285948516
  8      -0.001135159949
  9      -0.000059323897
 10      -0.000014808709
 11      -0.000415733965
 12      -0.000182074376
 13      -0.000229351396
 14      -0.000539460333
 15      -0.000561756275
 16       0.002091302205
 17      -0.001215998064
 18       0.001636719239
 19       0.008427758333
 20      -0.321685915272
 21       0.094080457681
 22      -0.000255467039
 23       0.014743077801
 24      -0.004293697838
 25       0.000003081793
 26      -0.002763658749
 27       0.000798856269
 28       0.000016798271
 29       0.000099257669
 30       0.000041054124
 31       0.000070345008
 32       0.000047878817
 33       0.001341753201
 34      -0.004994597837
 35       0.002902199400
 36      -0.003918026259
 37      -0.644289251370
 38      -0.383819374876
 39      -0.280951619131
 40       0.029527534776
 41       0.017577030716
 42       0.012832615382
 43      -0.005539324047
 44      -0.003292880287
 45      -0.002392665969
 46      -0.000027562805
 47       0.000099243511
 48       0.000044122209
 49       0.000073558784
 50       0.000148062284
 51      -0.000773055488
 52       0.002877873022
 53      -0.001673138064
 54       0.002253323378
 55      -0.384026541584
 56       0.199040176844
 57       0.160558870498
 58       0.017652409497
 59      -0.009017915654
 60      -0.007328636564
 61      -0.003327422421
 62       0.001654996443
 63       0.001363969085
 64       0.000022228338
 65       0.000098810714
 66       0.000048789882
 67      -0.000014686692
 68       0.000101077769
 69      -0.000002232583
 70      -0.000002049432
 71       0.000020939490
 72       0.000010380549
 73       0.000000889391
 Sym=     1a
 Ene= -8.05719226405379E+00
 Spin= Alpha
 Occup= 2.000000
  1      -0.000000016849
  2       0.000000635070
  3      -0.000007174780
  4      -0.000072646779
  5       0.000145927387
  6       0.000007004680
  7      -0.001136709795
  8       0.002283225137
  9       0.000111656686
 10       0.000031096908
 11      -0.000203733173
 12       0.000359983847
 13       0.000577341154
 14      -0.000210804635
 15       0.001220336111
 16      -0.004542795460
 17       0.002640352508
 18      -0.003560413900
 19      -0.019955932994
 20       0.698805475465
 21      -0.204391732468
 22       0.000974778508
 23      -0.032015752080
 24       0.009328871256
 25      -0.000203429229
 26       0.006000730854
 27      -0.001736617969
 28      -0.000035747260
 29       0.000048526343
 30      -0.000081181874
 31      -0.000159038545
 32       0.000011309179
 33      -0.000122641978
 34       0.000456501191
 35      -0.000265150168
 36       0.000358614173
 37       0.058530824591
 38       0.035672775193
 39       0.025710189907
 40      -0.002606468710
 41      -0.001756591419
 42      -0.001180295230
 43       0.000463206352
 44       0.000371364511
 45       0.000222211342
 46      -0.000005106688
 47       0.000048963480
 48      -0.000093600784
 49      -0.000059203183
 50       0.000007968719
 51      -0.001099646853
 52       0.004093445973
 53      -0.002378877238
 54       0.003209671462
 55      -0.545724211681
 56       0.284195487471
 57       0.228454717840
 58       0.024965346375
 59      -0.013096269543
 60      -0.010438518033
 61      -0.004667321164
 62       0.002481004412
 63       0.001947303056
 64       0.000017895461
 65       0.000048686274
 66      -0.000091259588
 67      -0.000106288591
 68       0.000096469553
 69       0.000000628141
 70       0.000000577166
 71       0.000010412815
 72      -0.000020909208
 73      -0.000001120478
 Sym=     1a
 Ene= -8.05717126357690E+00
 Spin= Alpha
 Occup= 2.000000
  1       0.000024171777
  2      -0.000914765020
  3       0.010335148082
  4       0.000000280532
  5      -0.000004558072
  6       0.000099525589
  7       0.000005267318
  8       0.000071974291
  9      -0.001389672387
 10       0.000489802849
 11       0.000000630093
 12      -0.000040599920
 13      -0.000000039075
 14       0.000001196679
 15       0.000939889820
 16      -0.003442410104
 17       0.001769290924
 18      -0.003786245834
 19      -0.015359238886
 20       0.545820606941
 21      -0.160091598722
 22       0.000696663086
 23      -0.024771578818
 24       0.007337084674
 25      -0.000146231526
 26       0.005201963932
 27      -0.001526779937
 28      -0.000034030176
 29       0.000000313985
 30      -0.000011650310
 31       0.000056683682
 32       0.000003174419
 33       0.000934262186
 34      -0.003421460896
 35       0.001757114611
 36      -0.003769823686
 37      -0.454936527608
 38      -0.271046127727
 39      -0.198847255644
 40       0.020642759623
 41       0.012295126365
 42       0.009095369207
 43      -0.004338303555
 44      -0.002584618407
 45      -0.001897332199
 46      -0.000032248160
 47       0.000007107378
 48       0.000009862917
 49      -0.000025737310
 50      -0.000052249399
 51       0.000938802358
 52      -0.003438361820
 53       0.001766936741
 54      -0.003783071227
 55       0.472627061352
 56      -0.245717537504
 57      -0.198224968549
 58      -0.021446643488
 59       0.011146119548
 60       0.009067404781
 61       0.004504937705
 62      -0.002341848187
 63      -0.001890428424
 64      -0.000032399309
 65      -0.000008002139
 66       0.000009590489
 67      -0.000031287393
 68       0.000048419802
 69      -0.000904815171
 70      -0.000830588404
 71      -0.000000090811
 72      -0.000007478292
 73       0.000152976113
 Sym=     1a
 Ene= -8.05335135239054E+00
 Spin= Alpha
 Occup= 2.000000
  1      -0.000000000000
  2      -0.000000000054
  3      -0.000000000775
  4       0.000000514743
  5      -0.000000567559
  6      -0.000000027225
  7      -0.000004413241
  8       0.000004864189
  9       0.000000232412
 10       0.000000002734
 11      -0.000000033292
 12       0.000000034866
 13       0.000000017147
 14      -0.000000010300
 15      -0.000000020917
 16       0.000000225411
 17      -0.000001340628
 18      -0.000000328450
 19      -0.565614200988
 20      -0.016221635747
 21      -0.001045788722
 22       0.024238994930
 23       0.000695724675
 24       0.000045077465
 25      -0.003401807941
 26      -0.000097699616
 27      -0.000007422928
 28      -0.000000113661
 29       0.000059019261
 30       0.000001907903
 31       0.000001270742
 32      -0.000023501437
 33      -0.000000005778
 34       0.000000056579
 35      -0.000000320780
 36      -0.000000082138
 37       0.299972194329
 38      -0.486192152435
 39      -0.023575784641
 40      -0.012854019184
 41       0.020833411020
 42       0.001010281821
 43       0.001802232219
 44      -0.002920943330
 45      -0.000141908507
 46       0.000004267696
 47      -0.000031219712
 48       0.000052089416
 49      -0.000016939382
 50       0.000011307258
 51       0.000000027322
 52      -0.000000284014
 53       0.000001660623
 54       0.000000410643
 55       0.269330547694
 56       0.498343578538
 57       0.024427008202
 58      -0.011542389243
 59      -0.021355436329
 60      -0.001047055266
 61       0.001619720425
 62       0.002996412462
 63       0.000148269106
 64      -0.000004109130
 65      -0.000028238197
 66      -0.000053440469
 67       0.000014872793
 68       0.000012841267
 69       0.000000000905
 70       0.000000000441
 71       0.000000494598
 72      -0.000000546062
 73      -0.000000026357
 Sym=     1a
 Ene= -8.05333953264461E+00
 Spin= Alpha
 Occup= 2.000000
  1       0.000000000052
  2       0.000000000319
  3      -0.000000001621
  4       0.000075515501
  5      -0.000152624595
  6      -0.000007398445
  7      -0.000646892172
  8       0.001307434778
  9       0.000063377001
 10       0.000000792178
 11      -0.000004784609
 12       0.000009313158
 13       0.000004328049
 14      -0.000001285730
 15      -0.000005339777
 16       0.000059005827
 17      -0.000354951142
 18      -0.000088812957
 19       0.337566828581
 20       0.002250378258
 21      -0.027181011609
 22      -0.014341308445
 23       0.000054642863
 24       0.001232896970
 25       0.001822593656
 26      -0.000027025143
 27      -0.000461967062
 28      -0.000075396358
 29      -0.000013584247
 30       0.000067250504
 31       0.000002786419
 32       0.000065493947
 33       0.000000545936
 34      -0.000006042840
 35       0.000036377440
 36       0.000009103048
 37       0.417381185764
 38      -0.678355315733
 39      -0.030052742982
 40      -0.017711582878
 41       0.028816482806
 42       0.001269372598
 43       0.002244012794
 44      -0.003659349148
 45      -0.000129995443
 46       0.000011306627
 47      -0.000009685291
 48       0.000038940384
 49      -0.000135723403
 50       0.000070118650
 51       0.000004790849
 52      -0.000052952408
 53       0.000318569292
 54       0.000079713092
 55      -0.214897667392
 56      -0.415392474439
 57       0.004324603302
 58       0.009005247055
 59       0.017710539326
 60      -0.000244273364
 61      -0.001116018171
 62      -0.002277071347
 63       0.000302892398
 64       0.000076096369
 65      -0.000040981021
 66       0.000041584913
 67      -0.000071190233
 68      -0.000049833342
 69       0.000000002000
 70       0.000000000837
 71       0.000072116304
 72      -0.000145754897
 73      -0.000007065572
 Sym=     1a
 Ene= -8.05333945749578E+00
 Spin= Alpha
 Occup= 2.000000
  1      -0.000000000371
  2       0.000000003291
  3      -0.000000003378
  4       0.000152815136
  5       0.000075430613
  6       0.000003708651
  7      -0.001309058738
  8      -0.000646161351
  9      -0.000031760140
 10      -0.000000397218
 11      -0.000009722701
 12      -0.000004622621
 13      -0.000001736512
 14      -0.000003396387
 15       0.000002450025
 16      -0.000027081980
 17       0.000162933524
 18       0.000040782714
 19       0.730073407368
 20       0.024316666623
 21       0.013987508378
 22      -0.031003296845
 23      -0.001101662689
 24      -0.000630092323
 25       0.003934627169
 26       0.000149056937
 27       0.000220197675
 28       0.000034514547
 29      -0.000024622982
 30      -0.000031458736
 31      -0.000011080934
 32       0.000141795708
 33      -0.000005844614
 34       0.000064624682
 35      -0.000388858524
 36      -0.000097330895
 37       0.047066748423
 38      -0.056502254941
 39      -0.032826183869
 40      -0.002142310368
 41       0.002307172364
 42       0.001467617270
 43       0.000304370309
 44      -0.000256221839
 45      -0.000518102770
 46      -0.000090895133
 47      -0.000058470935
 48      -0.000024110273
 49      -0.000015884501
 50       0.000006010978
 51       0.000003398693
 52      -0.000037558697
 53       0.000225939765
 54       0.000056556965
 55       0.315672195646
 56       0.571608618415
 57       0.045356161923
 58      -0.013492191132
 59      -0.024226388864
 60      -0.001969213016
 61       0.001731657437
 62       0.003054339903
 63       0.000442776599
 64       0.000050410143
 65      -0.000044611864
 66      -0.000016323163
 67       0.000106189453
 68       0.000069749192
 69      -0.000000014874
 70      -0.000000004602
 71       0.000145919451
 72       0.000072027904
 73       0.000003543174
 Sym=     1a
 Ene= -8.05327091069307E+00
 Spin= Alpha
 Occup= 2.000000
  1      -0.000000139199
  2       0.000001580904
  3      -0.000003232876
  4       0.000115922713
  5       0.000057576582
  6       0.000001209717
  7      -0.000895823915
  8      -0.000445173149
  9      -0.000004486960
 10       0.000000757243
 11       0.000008985757
 12       0.000003011316
 13       0.000012962934
 14       0.000032135518
 15      -0.000019014878
 16       0.000062187562
 17       0.000014467795
 18       0.000161464396
 19      -0.031994154209
 20       0.092239739805
 21       0.318423888915
 22       0.001237177475
 23      -0.003937407935
 24      -0.013561810893
 25       0.000218931559
 26       0.000428170041
 27       0.001783477908
 28      -0.000040340742
 29      -0.000001584875
 30       0.000045335132
 31      -0.000020088914
 32      -0.000139557744
 33       0.000046227292
 34      -0.000151971181
 35      -0.000030145473
 36      -0.000377613769
 37       0.222522118331
 38       0.177128063764
 39      -0.752204777129
 40      -0.009492998642
 41      -0.007538717581
 42       0.032035239861
 43       0.001069023321
 44       0.000836858801
 45      -0.004231415881
 46       0.000108799402
 47       0.000079793519
 48       0.000042507114
 49      -0.000017525063
 50      -0.000074081952
 51      -0.000026302257
 52       0.000086108623
 53       0.000019450133