[Molden Format]
[Title]
 Molden file created by orca_2mkl for BaseName=D:\hty\creat\code\github\orcacal\Goble\..\Test\ORCA_cal\ORCA_structure\H2O_1\input

[Atoms] AU
O    1   8          0.0000000000         0.0000000000         0.1182968560 
H    2   1         -1.4966630981         0.0000000000        -0.9397608064 
H    3   1          1.4966630981         0.0000000000        -0.9397608064 
[GTO]
  1 0
s   5 1.0 
     2266.1767785000        -1.2615859742
      340.8701019100        -2.2748500410
       77.3631351670        -3.3479623295
       21.4796449400        -3.3299980531
        6.6589433124        -1.3203828288
s   1 1.0 
        0.8097597567         0.6083832301
s   1 1.0 
        0.2553077223         0.2559811911
p   3 1.0 
       17.7215043170         3.2460107647
        3.8635505440         2.5734959178
        1.0480920883         1.1208372892
p   1 1.0 
        0.2764154441         0.2856886381
d   1 1.0 
        1.2000000000         3.9222679946

  2 0
s   3 1.0 
       13.0107010000         0.1634903809
        1.9622572000         0.2773515510
        0.4445379600         0.3157501452
s   1 1.0 
        0.1219496200         0.1470772262
p   1 1.0 
        0.8000000000         1.0784563492

  3 0
s   3 1.0 
       13.0107010000         0.1634903809
        1.9622572000         0.2773515510
        0.4445379600         0.3157501452
s   1 1.0 
        0.1219496200         0.1470772262
p   1 1.0 
        0.8000000000         1.0784563492

[5D]
[7F]
[9G]
[MO]
 Sym=     1a
 Ene= -2.05448527894662E+01
 Spin= Alpha
 Occup= 2.000000
  1      -0.990350427955
  2       0.033188061887
  3      -0.010544293099
  4       0.000000000000
  5      -0.000000000000
  6      -0.002605906867
  7      -0.000000000000
  8       0.000000000000
  9       0.000254451325
 10      -0.000012980789
 11       0.000000000000
 12       0.000000000000
 13       0.000897810285
 14      -0.000000000000
 15      -0.001653338851
 16       0.001801060176
 17      -0.001949790589
 18      -0.000000000000
 19      -0.001409292032
 20      -0.001653338851
 21       0.001801060176
 22       0.001949790589
 23      -0.000000000000
 24      -0.001409292032
 Sym=     1a
 Ene= -1.30835746617631E+00
 Spin= Alpha
 Occup= 2.000000
  1      -0.279553987542
  2      -0.553001403512
  3      -0.301234262646
  4       0.000000000000
  5      -0.000000000000
  6       0.078241667232
  7       0.000000000000
  8       0.000000000000
  9      -0.001394419720
 10      -0.000992404428
 11      -0.000000000000
 12      -0.000000000000
 13      -0.004273306804
 14       0.000000000000
 15      -0.186549795299
 16      -0.006388882714
 17      -0.032184646860
 18       0.000000000000
 19      -0.015206335916
 20      -0.186549795299
 21      -0.006388882714
 22       0.032184646860
 23       0.000000000000
 24      -0.015206335916
 Sym=     1a
 Ene= -7.05596450938469E-01
 Spin= Alpha
 Occup= 2.000000
  1       0.000000000000
  2       0.000000000000
  3      -0.000000000000
  4       0.486923082190
  5       0.000000000000
  6      -0.000000000000
  7       0.221813875347
  8       0.000000000000
  9       0.000000000000
 10      -0.000000000000
 11      -0.024853433719
 12       0.000000000000
 13      -0.000000000000
 14       0.000000000000
 15      -0.327322569736
 16      -0.083044180061
 17      -0.023897350199
 18       0.000000000000
 19      -0.029201015190
 20       0.327322569736
 21       0.083044180061
 22      -0.023897350199
 23      -0.000000000000
 24       0.029201015190
 Sym=     1a
 Ene= -5.55949170956984E-01
 Spin= Alpha
 Occup= 2.000000
  1      -0.091206114612
  2      -0.190163924712
  3      -0.313329061173
  4      -0.000000000000
  5       0.000000000000
  6      -0.552511917179
  7       0.000000000000
  8       0.000000000000
  9      -0.376911189817
 10       0.017313204462
 11      -0.000000000000
 12       0.000000000000
 13       0.004051721035
 14       0.000000000000
 15       0.194581976809
 16       0.054681158280
 17       0.028947072008
 18       0.000000000000
 19      -0.008419291136
 20       0.194581976809
 21       0.054681158280
 22      -0.028947072008
 23       0.000000000000
 24      -0.008419291136
 Sym=     1a
 Ene= -4.95137548056349E-01
 Spin= Alpha
 Occup= 2.000000
  1      -0.000000000000
  2      -0.000000000000
  3      -0.000000000000
  4       0.000000000000
  5      -0.632188586166
  6      -0.000000000000
  7       0.000000000000
  8      -0.498664177132
  9      -0.000000000000
 10       0.000000000000
 11      -0.000000000000
 12       0.017717190761
 13      -0.000000000000
 14      -0.000000000000
 15       0.000000000000
 16       0.000000000000
 17       0.000000000000
 18      -0.028265039920
 19       0.000000000000
 20       0.000000000000
 21      -0.000000000000
 22      -0.000000000000
 23      -0.028265039920
 24      -0.000000000000
 Sym=     1a
 Ene= 1.74993587052503E-01
 Spin= Alpha
 Occup= 0.000000
  1       0.089178830435
  2       0.092747921687
  3       1.099851462014
  4       0.000000000000
  5       0.000000000000
  6      -0.185875837355
  7       0.000000000000
  8       0.000000000000
  9      -0.358470619880
 10       0.006552725320
 11      -0.000000000000
 12       0.000000000000
 13       0.009401597433
 14       0.000000000000
 15      -0.074475113102
 16      -0.897140641212
 17      -0.015089773224
 18       0.000000000000
 19      -0.011173177089
 20      -0.074475113102
 21      -0.897140641213
 22       0.015089773224
 23      -0.000000000000
 24      -0.011173177089
 Sym=     1a
 Ene= 2.53029496382191E-01
 Spin= Alpha
 Occup= 0.000000
  1      -0.000000000000
  2      -0.000000000000
  3      -0.000000000000
  4       0.283806524959
  5      -0.000000000000
  6       0.000000000000
  7       0.663562338845
  8       0.000000000000
  9       0.000000000000
 10      -0.000000000000
 11      -0.018459062308
 12      -0.000000000000
 13       0.000000000000
 14      -0.000000000000
 15       0.024424901256
 16       1.386523669909
 17       0.015154434753
 18      -0.000000000000
 19       0.011081991489
 20      -0.024424901256
 21      -1.386523669909
 22       0.015154434753
 23      -0.000000000000
 24      -0.011081991489
 Sym=     1a
 Ene= 8.04602781875522E-01
 Spin= Alpha
 Occup= 0.000000
  1      -0.000000000000
  2      -0.000000000000
  3       0.000000000000
  4       0.291368151301
  5      -0.000000000000
  6      -0.000000000000
  7       0.496185094346
  8      -0.000000000000
  9       0.000000000000
 10       0.000000000000
 11       0.107660288968
 12      -0.000000000000
 13       0.000000000000
 14       0.000000000000
 15       0.969462889755
 16      -0.663031086702
 17      -0.054692996257
 18       0.000000000000
 19      -0.133234513288
 20      -0.969462889755
 21       0.663031086702
 22      -0.054692996257
 23      -0.000000000000
 24       0.133234513288
 Sym=     1a
 Ene= 8.33964595900565E-01
 Spin= Alpha
 Occup= 0.000000
  1       0.109538653075
  2       0.369619225311
  3      -0.297533408304
  4      -0.000000000000
  5      -0.000000000000
  6      -0.290234486431
  7       0.000000000000
  8       0.000000000000
  9      -0.111792629583
 10       0.011017483465
 11       0.000000000000
 12       0.000000000000
 13      -0.104431510736
 14       0.000000000000
 15      -0.868410018744
 16       0.562646471428
 17       0.224532148897
 18       0.000000000000
 19       0.028732929823
 20      -0.868410018744
 21       0.562646471428
 22      -0.224532148897
 23      -0.000000000000
 24       0.028732929823
 Sym=     1a
 Ene= 1.18530559359674E+00
 Spin= Alpha
 Occup= 0.000000
  1      -0.108754466705
  2      -0.451213338062
  3      -0.115698303616
  4       0.000000000000
  5       0.000000000000
  6      -0.824347196672
  7      -0.000000000000
  8      -0.000000000000
  9       1.179145244318
 10      -0.005561319721
 11      -0.000000000000
 12      -0.000000000000
 13       0.000419184752
 14      -0.000000000000
 15       0.350647314380
 16       0.067295272516
 17       0.085045954914
 18       0.000000000000
 19       0.150792125527
 20       0.350647314380
 21       0.067295272516
 22      -0.085045954914
 23       0.000000000000
 24       0.150792125527
 Sym=     1a
 Ene= 1.20341009865187E+00
 Spin= Alpha
 Occup= 0.000000
  1      -0.000000000000
  2      -0.000000000000
  3       0.000000000000
  4       0.000000000000
  5      -0.968094000575
  6      -0.000000000000
  7      -0.000000000000
  8       1.027287698650
  9       0.000000000000
 10       0.000000000000
 11       0.000000000000
 12       0.003593170660
 13      -0.000000000000
 14      -0.000000000000
 15       0.000000000000
 16      -0.000000000000
 17       0.000000000000
 18       0.007769266709
 19       0.000000000000
 20       0.000000000000
 21       0.000000000000
 22      -0.000000000000
 23       0.007769266709
 24       0.000000000000
 Sym=     1a
 Ene= 1.26597093047662E+00
 Spin= Alpha
 Occup= 0.000000
  1      -0.000000000000
  2       0.000000000000
  3      -0.000000000000
  4      -0.753750523738
  5      -0.000000000000
  6      -0.000000000000
  7       1.744534648784
  8       0.000000000000
  9       0.000000000000
 10      -0.000000000000
 11      -0.037339392078
 12       0.000000000000
 13       0.000000000000
 14      -0.000000000000
 15       0.367289035009
 16       0.764035116849
 17       0.287735149226
 18      -0.000000000000
 19       0.135840199017
 20      -0.367289035009
 21      -0.764035116849
 22       0.287735149226
 23      -0.000000000000
 24      -0.135840199017
 Sym=     1a
 Ene= 1.33204035849437E+00
 Spin= Alpha
 Occup= 0.000000
  1      -0.260735519486
  2      -1.611716653968
  3       2.830307963252
  4      -0.000000000000
  5       0.000000000000
  6       0.054797208995
  7       0.000000000000
  8      -0.000000000000
  9      -0.539277484615
 10       0.035824993338
 11      -0.000000000000
 12      -0.000000000000
 13      -0.031263197776
 14       0.000000000000
 15      -0.482279564335
 16      -0.524224662111
 17      -0.036916000111
 18      -0.000000000000
 19      -0.297539951180
 20      -0.482279564335
 21      -0.524224662111
 22       0.036916000111
 23      -0.000000000000
 24      -0.297539951180
 Sym=     1a
 Ene= 1.57982681327514E+00
 Spin= Alpha
 Occup= 0.000000
  1       0.000000000000
  2       0.000000000000
  3      -0.000000000000
  4      -0.000000000000
  5      -0.000000000000
  6      -0.000000000000
  7       0.000000000000
  8       0.000000000000
  9       0.000000000000
 10       0.000000000000
 11       0.000000000000
 12       0.000000000000
 13      -0.000000000000
 14       0.165008025005
 15       0.000000000000
 16       0.000000000000
 17       0.000000000000
 18      -0.666383318049
 19       0.000000000000
 20      -0.000000000000
 21       0.000000000000
 22      -0.000000000000
 23       0.666383318049
 24      -0.000000000000
 Sym=     1a
 Ene= 1.72808686822348E+00
 Spin= Alpha
 Occup= 0.000000
  1      -0.082805864807
  2      -0.666745659941
  3       1.491504522653
  4      -0.000000000000
  5      -0.000000000000
  6       0.103673667230
  7       0.000000000000
  8       0.000000000000
  9      -1.084323437270
 10      -0.198250102819
 11       0.000000000000
 12      -0.000000000000
 13      -0.026679037995
 14       0.000000000000
 15      -0.658254492111
 16      -0.153858918505
 17      -0.406786580546
 18      -0.000000000000
 19       0.508005791213
 20      -0.658254492111
 21      -0.153858918505
 22       0.406786580546
 23       0.000000000000
 24       0.508005791213
 Sym=     1a
 Ene= 1.83201029975697E+00
 Spin= Alpha
 Occup= 0.000000
  1       0.000000000000
  2       0.000000000000
  3      -0.000000000000
  4       0.000000000000
  5       0.012260484885
  6       0.000000000000
  7       0.000000000000
  8       0.566748537938
  9       0.000000000000
 10      -0.000000000000
 11       0.000000000000
 12       0.197614004364
 13       0.000000000000
 14      -0.000000000000
 15       0.000000000000
 16      -0.000000000000
 17      -0.000000000000
 18      -0.744630129029
 19       0.000000000000
 20      -0.000000000000
 21       0.000000000000
 22      -0.000000000000
 23      -0.744630129029
 24       0.000000000000
 Sym=     1a
 Ene= 2.01421693897438E+00
 Spin= Alpha
 Occup= 0.000000
  1      -0.000000000000
  2      -0.000000000000
  3       0.000000000000
  4       0.099336045865
  5      -0.000000000000
  6      -0.000000000000
  7      -0.899272603226
  8       0.000000000000
  9      -0.000000000000
 10      -0.000000000000
 11      -0.015381886401
 12       0.000000000000
 13      -0.000000000000
 14       0.000000000000
 15      -0.393550034873
 16      -0.089350809234
 17       0.455969985909
 18      -0.000000000000
 19      -0.647407220692
 20       0.393550034873
 21       0.089350809234
 22       0.455969985909
 23      -0.000000000000
 24       0.647407220692
 Sym=     1a
 Ene= 2.54904265761130E+00
 Spin= Alpha
 Occup= 0.000000
  1      -0.000000000000
  2      -0.000000000000
  3      -0.000000000000
  4      -0.798103051069
  5       0.000000000000
  6       0.000000000000
  7      -0.174643924639
  8       0.000000000000
  9       0.000000000000
 10       0.000000000000
 11      -0.169340945295
 12      -0.000000000000
 13       0.000000000000
 14       0.000000000000
 15      -0.247389112898
 16      -0.291067494775
 17      -0.648997851143
 18      -0.000000000000
 19      -0.557302388615
 20       0.247389112899
 21       0.291067494776
 22      -0.648997851143
 23      -0.000000000000
 24       0.557302388615
 Sym=     1a
 Ene= 2.57078021518392E+00
 Spin= Alpha
 Occup= 0.000000
  1       0.153878992516
  2       0.746727499450
  3       0.666095562991
  4      -0.000000000000
  5      -0.000000000000
  6      -0.575997133718
  7      -0.000000000000
  8       0.000000000000
  9      -0.211826053010
 10      -0.105861888533
 11      -0.000000000000
 12      -0.000000000000
 13      -0.271971351322
 14      -0.000000000000
 15      -0.418936609400
 16      -0.186372959015
 17      -0.750759596284
 18      -0.000000000000
 19      -0.438828762394
 20      -0.418936609400
 21      -0.186372959015
 22       0.750759596284
 23      -0.000000000000
 24      -0.438828762394
 Sym=     1a
 Ene= 3.28794387636378E+00
 Spin= Alpha
 Occup= 0.000000
  1      -0.000000000000
  2       0.000000000000
  3      -0.000000000000
  4       0.000000000000
  5      -0.014285899286
  6       0.000000000000
  7      -0.000000000000
  8       0.278608893887
  9       0.000000000000
 10      -0.000000000000
 11       0.000000000000
 12      -1.023508175001
 13      -0.000000000000
 14      -0.000000000000
 15       0.000000000000
 16       0.000000000000
 17       0.000000000000
 18      -0.386015732376
 19       0.000000000000
 20       0.000000000000
 21       0.000000000000
 22      -0.000000000000
 23      -0.386015732376
 24      -0.000000000000
 Sym=     1a
 Ene= 3.39243475105458E+00
 Spin= Alpha
 Occup= 0.000000
  1       0.000000000000
  2       0.000000000000
  3       0.000000000000
  4       0.000000000000
  5      -0.000000000000
  6      -0.000000000000
  7      -0.000000000000
  8       0.000000000000
  9      -0.000000000000
 10       0.000000000000
 11       0.000000000000
 12       0.000000000000
 13      -0.000000000000
 14      -1.057489744965
 15      -0.000000000000
 16      -0.000000000000
 17      -0.000000000000
 18      -0.380848698747
 19       0.000000000000
 20      -0.000000000000
 21       0.000000000000
 22       0.000000000000
 23       0.380848698747
 24       0.000000000000
 Sym=     1a
 Ene= 3.51584554173927E+00
 Spin= Alpha
 Occup= 0.000000
  1      -0.011933114952
  2       0.045553414070
  3      -0.672476504034
  4       0.000000000000
  5       0.000000000000
  6       0.062809784513
  7       0.000000000000
  8      -0.000000000000
  9       0.583081483415
 10      -1.058225115789
 11      -0.000000000000
 12       0.000000000000
 13      -0.014185638226
 14      -0.000000000000
 15       0.384759989040
 16       0.083189081059
 17       0.428308686369
 18      -0.000000000000
 19      -0.276139274686
 20       0.384759989040
 21       0.083189081059
 22      -0.428308686369
 23       0.000000000000
 24      -0.276139274686
 Sym=     1a
 Ene= 3.93528693924613E+00
 Spin= Alpha
 Occup= 0.000000
  1       0.078568318411
  2       0.170954006463
  3       1.763177797816
  4       0.000000000000
  5      -0.000000000000
  6      -0.363572986462
  7      -0.000000000000
  8       0.000000000000
  9      -0.749783564797
 10      -0.078080365937
 11       0.000000000000
 12      -0.000000000000
 13       1.177141488242
 14      -0.000000000000
 15      -1.072536993273
 16      -0.211988301062
 17      -0.596816797401
 18      -0.000000000000
 19      -0.502142679014
 20      -1.072536993273
 21      -0.211988301062
 22       0.596816797401
 23       0.000000000000
 24      -0.502142679014
 Sym=     1a
 Ene= 4.18753831399563E+00
 Spin= Alpha
 Occup= 0.000000
  1      -0.000000000000
  2      -0.000000000000
  3      -0.000000000000
  4      -0.472444792361
  5       0.000000000000
  6       0.000000000000
  7      -1.115466001243
  8      -0.000000000000
  9       0.000000000000
 10      -0.000000000000
 11       1.316680107233
 12       0.000000000000
 13      -0.000000000000
 14       0.000000000000
 15      -1.031705683142
 16      -0.249294700640
 17      -0.625158100458
 18       0.000000000000
 19      -0.447747816312
 20       1.031705683142
 21       0.249294700640
 22      -0.625158100458
 23       0.000000000000
 24       0.447747816312
