[Molden Format]
[Title]
 Molden file created by orca_2mkl for BaseName=D:\hty\creat\code\github\pyORCA\Goble\..\Test\ORCA_cal\ORCA_structure\H2O_1\input

[Atoms] AU
O    1   8          0.0000000000         0.0000000000         0.1182968560 
H    2   1         -1.4966630981         0.0000000000        -0.9397608064 
H    3   1          1.4966630981         0.0000000000        -0.9397608064 
[GTO]
  1 0
s   5 1.0 
     2266.1767785000        -1.2615859742
      340.8701019100        -2.2748500410
       77.3631351670        -3.3479623295
       21.4796449400        -3.3299980531
        6.6589433124        -1.3203828288
s   1 1.0 
        0.8097597567         0.6083832301
s   1 1.0 
        0.2553077223         0.2559811911
p   3 1.0 
       17.7215043170         3.2460107647
        3.8635505440         2.5734959178
        1.0480920883         1.1208372892
p   1 1.0 
        0.2764154441         0.2856886381
d   1 1.0 
        1.2000000000         3.9222679946

  2 0
s   3 1.0 
       13.0107010000         0.1634903809
        1.9622572000         0.2773515510
        0.4445379600         0.3157501452
s   1 1.0 
        0.1219496200         0.1470772262
p   1 1.0 
        0.8000000000         1.0784563492

  3 0
s   3 1.0 
       13.0107010000         0.1634903809
        1.9622572000         0.2773515510
        0.4445379600         0.3157501452
s   1 1.0 
        0.1219496200         0.1470772262
p   1 1.0 
        0.8000000000         1.0784563492

[5D]
[7F]
[9G]
[MO]
 Sym=     1a
 Ene= -2.05448722796339E+01
 Spin= Alpha
 Occup= 2.000000
  1       0.990350458526
  2      -0.033187954320
  3       0.010544252731
  4      -0.000000000000
  5      -0.000000000001
  6       0.002605893274
  7       0.000000000000
  8       0.000000000001
  9      -0.000254448907
 10       0.000012989737
 11       0.000000000000
 12      -0.000000000001
 13      -0.000897811150
 14      -0.000000000000
 15       0.001653333180
 16      -0.001801052757
 17       0.001949780953
 18      -0.000000000000
 19       0.001409286441
 20       0.001653333180
 21      -0.001801052757
 22      -0.001949780954
 23      -0.000000000000
 24       0.001409286441
 Sym=     1a
 Ene= -1.30836228779284E+00
 Spin= Alpha
 Occup= 2.000000
  1      -0.279554172021
  2      -0.553002195678
  3      -0.301234448374
  4      -0.000000000006
  5       0.000000000026
  6       0.078241224661
  7      -0.000000000003
  8       0.000000000002
  9      -0.001394683165
 10      -0.000992336778
 11       0.000000000002
 12      -0.000000000001
 13      -0.004273384758
 14      -0.000000000001
 15      -0.186549426652
 16      -0.006388661986
 17      -0.032184596829
 18      -0.000000000004
 19      -0.015206256398
 20      -0.186549426663
 21      -0.006388661973
 22       0.032184596830
 23      -0.000000000001
 24      -0.015206256403
 Sym=     1a
 Ene= -7.05601911799046E-01
 Spin= Alpha
 Occup= 2.000000
  1       0.000000000009
  2       0.000000000020
  3       0.000000000014
  4      -0.486926411702
  5      -0.000000000055
  6       0.000000000062
  7      -0.221815048400
  8      -0.000000000024
  9       0.000000000014
 10       0.000000000001
 11       0.024853433870
 12      -0.000000000000
 13      -0.000000000002
 14      -0.000000000013
 15       0.327321260980
 16       0.083040193366
 17       0.023897381069
 18       0.000000000007
 19       0.029201044555
 20      -0.327321261017
 21      -0.083040193340
 22       0.023897381070
 23      -0.000000000007
 24      -0.029201044561
 Sym=     1a
 Ene= -5.55952942661583E-01
 Spin= Alpha
 Occup= 2.000000
  1      -0.091205751731
  2      -0.190163409000
  3      -0.313327283207
  4       0.000000000003
  5      -0.000000000446
  6      -0.552511972797
  7       0.000000000011
  8      -0.000000000277
  9      -0.376911852027
 10       0.017313246038
 11       0.000000000004
 12       0.000000000001
 13       0.004051746259
 14      -0.000000000002
 15       0.194581869698
 16       0.054680348533
 17       0.028947065725
 18      -0.000000000014
 19      -0.008419454866
 20       0.194581869586
 21       0.054680348442
 22      -0.028947065724
 23      -0.000000000017
 24      -0.008419454865
 Sym=     1a
 Ene= -4.95142974588201E-01
 Spin= Alpha
 Occup= 2.000000
  1      -0.000000000100
  2      -0.000000000217
  3      -0.000000000488
  4       0.000000000034
  5       0.632190095194
  6      -0.000000000185
  7       0.000000000029
  8       0.498662574208
  9      -0.000000000191
 10      -0.000000000000
 11       0.000000000006
 12      -0.017717207271
 13       0.000000000003
 14       0.000000000005
 15       0.000000000294
 16       0.000000000369
 17       0.000000000005
 18       0.028265029447
 19      -0.000000000007
 20       0.000000000165
 21       0.000000000192
 22      -0.000000000006
 23       0.028265029459
 24      -0.000000000003
 Sym=     1a
 Ene= 1.74993144401456E-01
 Spin= Alpha
 Occup= 0.000000
  1       0.089179088462
  2       0.092749485862
  3       1.099849511677
  4       0.000000000017
  5       0.000000000213
  6      -0.185876157993
  7       0.000000000049
  8       0.000000000199
  9      -0.358469672950
 10       0.006552660434
 11      -0.000000000001
 12      -0.000000000006
 13       0.009401537218
 14       0.000000000001
 15      -0.074475793475
 16      -0.897139867861
 17      -0.015089817132
 18       0.000000000008
 19      -0.011173103875
 20      -0.074475793489
 21      -0.897139868110
 22       0.015089817133
 23       0.000000000010
 24      -0.011173103877
 Sym=     1a
 Ene= 2.53028097861737E-01
 Spin= Alpha
 Occup= 0.000000
  1      -0.000000000006
  2      -0.000000000007
  3      -0.000000000082
  4       0.283806844028
  5      -0.000000000053
  6       0.000000000041
  7       0.663559750015
  8      -0.000000000054
  9       0.000000000057
 10      -0.000000000002
 11      -0.018458709087
 12       0.000000000001
 13      -0.000000000001
 14       0.000000000000
 15       0.024428123227
 16       1.386521444076
 17       0.015154383452
 18      -0.000000000001
 19       0.011081932948
 20      -0.024428123235
 21      -1.386521443919
 22       0.015154383451
 23      -0.000000000004
 24      -0.011081932943
 Sym=     1a
 Ene= 8.04600676609383E-01
 Spin= Alpha
 Occup= 0.000000
  1      -0.000000000028
  2      -0.000000000087
  3       0.000000000056
  4      -0.291369960795
  5       0.000000000013
  6       0.000000000066
  7      -0.496177993087
  8       0.000000000042
  9       0.000000000001
 10      -0.000000000002
 11      -0.107660849842
 12       0.000000000000
 13       0.000000000025
 14      -0.000000000001
 15      -0.969462363989
 16       0.663036064383
 17       0.054693114694
 18      -0.000000000001
 19       0.133234339891
 20       0.969462364428
 21      -0.663036064658
 22       0.054693114805
 23       0.000000000003
 24      -0.133234339914
 Sym=     1a
 Ene= 8.33963154705459E-01
 Spin= Alpha
 Occup= 0.000000
  1      -0.109538835891
  2      -0.369621220114
  3       0.297537701494
  4       0.000000000063
  5      -0.000000000026
  6       0.290236245136
  7       0.000000000144
  8      -0.000000000107
  9       0.111789726850
 10      -0.011017483763
 11       0.000000000027
 12       0.000000000002
 13       0.104431797630
 14      -0.000000000001
 15       0.868409098924
 16      -0.562647822316
 17      -0.224531672590
 18      -0.000000000003
 19      -0.028732967516
 20       0.868409098434
 21      -0.562647822009
 22       0.224531672576
 23      -0.000000000006
 24      -0.028732967451
 Sym=     1a
 Ene= 1.18530264170009E+00
 Spin= Alpha
 Occup= 0.000000
  1       0.108755163716
  2       0.451217358975
  3       0.115690128953
  4      -0.000000000006
  5       0.000000001002
  6       0.824347203731
  7       0.000000000066
  8      -0.000000001139
  9      -1.179143571781
 10       0.005561337327
 11       0.000000000001
 12       0.000000000000
 13      -0.000419564582
 14       0.000000000001
 15      -0.350646824257
 16      -0.067293228033
 17      -0.085044755653
 18      -0.000000000013
 19      -0.150790948991
 20      -0.350646824296
 21      -0.067293228066
 22       0.085044755662
 23      -0.000000000011
 24      -0.150790948996
 Sym=     1a
 Ene= 1.20340546021804E+00
 Spin= Alpha
 Occup= 0.000000
  1       0.000000000114
  2       0.000000000490
  3       0.000000000112
  4      -0.000000000070
  5      -0.968093018493
  6       0.000000000925
  7       0.000000000199
  8       1.027288320019
  9      -0.000000001241
 10       0.000000000006
 11      -0.000000000002
 12       0.003593082095
 13       0.000000000007
 14      -0.000000000001
 15      -0.000000000295
 16      -0.000000000008
 17      -0.000000000084
 18       0.007769515672
 19      -0.000000000156
 20      -0.000000000397
 21      -0.000000000160
 22       0.000000000137
 23       0.007769515678
 24      -0.000000000175
 Sym=     1a
 Ene= 1.26596717982882E+00
 Spin= Alpha
 Occup= 0.000000
  1      -0.000000000016
  2      -0.000000000094
  3       0.000000000146
  4      -0.753750064172
  5       0.000000000118
  6      -0.000000000033
  7       1.744536781484
  8      -0.000000000097
  9      -0.000000000010
 10       0.000000000002
 11      -0.037338514680
 12      -0.000000000001
 13      -0.000000000004
 14      -0.000000000002
 15       0.367290477719
 16       0.764034694132
 17       0.287733368869
 18       0.000000000001
 19       0.135838705342
 20      -0.367290477775
 21      -0.764034694173
 22       0.287733368868
 23       0.000000000000
 24      -0.135838705358
 Sym=     1a
 Ene= 1.33203750780696E+00
 Spin= Alpha
 Occup= 0.000000
  1       0.260735130245
  2       1.611715821888
  3      -2.830308688637
  4      -0.000000000040
  5       0.000000000025
  6      -0.054799359665
  7       0.000000000082
  8       0.000000000007
  9       0.539280981311
 10      -0.035825236311
 11      -0.000000000002
 12       0.000000000003
 13       0.031263798459
 14       0.000000000001
 15       0.482281246918
 16       0.524224730949
 17       0.036915624685
 18      -0.000000000008
 19       0.297539406621
 20       0.482281246881
 21       0.524224730871
 22      -0.036915624650
 23      -0.000000000002
 24       0.297539406618
 Sym=     1a
 Ene= 1.57982549752059E+00
 Spin= Alpha
 Occup= 0.000000
  1      -0.000000000001
  2      -0.000000000004
  3       0.000000000003
  4      -0.000000000009
  5      -0.000000000004
  6      -0.000000000003
  7       0.000000000001
  8      -0.000000000033
  9       0.000000000005
 10       0.000000000002
 11      -0.000000000001
 12      -0.000000000005
 13       0.000000000001
 14       0.165009044350
 15       0.000000000012
 16       0.000000000002
 17       0.000000000002
 18      -0.666382950908
 19      -0.000000000005
 20      -0.000000000003
 21      -0.000000000005
 22      -0.000000000002
 23       0.666382950968
 24      -0.000000000004
 Sym=     1a
 Ene= 1.72808525270512E+00
 Spin= Alpha
 Occup= 0.000000
  1       0.082805622629
  2       0.666744321450
  3      -1.491501878913
  4      -0.000000000002
  5       0.000000000011
  6      -0.103673617075
  7       0.000000000036
  8       0.000000000012
  9       1.084322642098
 10       0.198251254066
 11       0.000000000001
 12       0.000000000002
 13       0.026679176503
 14      -0.000000000001
 15       0.658253994177
 16       0.153858379212
 17       0.406786045410
 18      -0.000000000003
 19      -0.508005686465
 20       0.658253994147
 21       0.153858379200
 22      -0.406786045426
 23      -0.000000000012
 24      -0.508005686502
 Sym=     1a
 Ene= 1.83200894239255E+00
 Spin= Alpha
 Occup= 0.000000
  1       0.000000000002
  2       0.000000000019
  3      -0.000000000036
  4       0.000000000003
  5      -0.012260237389
  6       0.000000000007
  7      -0.000000000003
  8      -0.566748488324
  9       0.000000000015
 10       0.000000000001
 11      -0.000000000000
 12      -0.197615250258
 13       0.000000000002
 14      -0.000000000009
 15       0.000000000007
 16       0.000000000002
 17       0.000000000007
 18       0.744629657135
 19      -0.000000000003
 20       0.000000000012
 21       0.000000000004
 22      -0.000000000005
 23       0.744629657085
 24      -0.000000000002
 Sym=     1a
 Ene= 2.01421639286558E+00
 Spin= Alpha
 Occup= 0.000000
  1       0.000000000001
  2       0.000000000007
  3      -0.000000000015
  4       0.099336196586
  5      -0.000000000001
  6      -0.000000000001
  7      -0.899272095462
  8       0.000000000001
  9       0.000000000018
 10       0.000000000009
 11      -0.015381924559
 12      -0.000000000000
 13      -0.000000000001
 14       0.000000000001
 15      -0.393549843393
 16      -0.089350469408
 17       0.455970384721
 18      -0.000000000001
 19      -0.647406903889
 20       0.393549843409
 21       0.089350469411
 22       0.455970384704
 23      -0.000000000002
 24       0.647406903860
 Sym=     1a
 Ene= 2.54903888305479E+00
 Spin= Alpha
 Occup= 0.000000
  1      -0.000000000070
  2      -0.000000000337
  3      -0.000000000310
  4      -0.798100798109
  5       0.000000000009
  6       0.000000000256
  7      -0.174645581926
  8      -0.000000000000
  9       0.000000000100
 10       0.000000000048
 11      -0.169341391743
 12      -0.000000000000
 13       0.000000000117
 14      -0.000000000007
 15      -0.247388381669
 16      -0.291068740838
 17      -0.648997907687
 18      -0.000000000000
 19      -0.557302853410
 20       0.247388382061
 21       0.291068741006
 22      -0.648997908366
 23       0.000000000001
 24       0.557302853802
 Sym=     1a
 Ene= 2.57077664607119E+00
 Spin= Alpha
 Occup= 0.000000
  1       0.153878689268
  2       0.746726456952
  3       0.666095122415
  4      -0.000000000354
  5       0.000000000015
  6      -0.575995876306
  7      -0.000000000075
  8       0.000000000000
  9      -0.211825861724
 10      -0.105862291306
 11      -0.000000000079
 12      -0.000000000007
 13      -0.271972251547
 14       0.000000000000
 15      -0.418935063639
 16      -0.186373332456
 17      -0.750759169149
 18       0.000000000001
 19      -0.438828785125
 20      -0.418935063427
 21      -0.186373332197
 22       0.750759168572
 23       0.000000000001
 24      -0.438828784630
 Sym=     1a
 Ene= 3.28793861939990E+00
 Spin= Alpha
 Occup= 0.000000
  1       0.000000000001
  2       0.000000000001
  3      -0.000000000001
  4      -0.000000000000
  5      -0.014285884606
  6       0.000000000010
  7      -0.000000000000
  8       0.278609572663
  9      -0.000000000001
 10       0.000000000011
 11       0.000000000001
 12      -1.023507934474
 13      -0.000000000001
 14       0.000000000010
 15      -0.000000000002
 16       0.000000000001
 17       0.000000000000
 18      -0.386016638467
 19       0.000000000007
 20       0.000000000000
 21       0.000000000001
 22      -0.000000000002
 23      -0.386016638471
 24       0.000000000006
 Sym=     1a
 Ene= 3.39242956727841E+00
 Spin= Alpha
 Occup= 0.000000
  1       0.000000000000
  2       0.000000000001
  3      -0.000000000005
  4       0.000000000009
  5       0.000000000003
  6       0.000000000001
  7      -0.000000000005
  8       0.000000000004
  9       0.000000000005
 10      -0.000000000009
 11       0.000000000007
 12      -0.000000000009
 13      -0.000000000001
 14      -1.057489585908
 15      -0.000000000004
 16      -0.000000000001
 17       0.000000000004
 18      -0.380849341098
 19      -0.000000000002
 20       0.000000000009
 21       0.000000000002
 22      -0.000000000003
 23       0.380849341088
 24      -0.000000000002
 Sym=     1a
 Ene= 3.51584059717216E+00
 Spin= Alpha
 Occup= 0.000000
  1       0.011933144823
  2      -0.045553421865
  3       0.672477502588
  4       0.000000000001
  5       0.000000000007
  6      -0.062809838200
  7       0.000000000003
  8      -0.000000000002
  9      -0.583082510204
 10       1.058224858157
 11      -0.000000000002
 12       0.000000000009
 13       0.014185304278
 14      -0.000000000009
 15      -0.384760515111
 16      -0.083189234874
 17      -0.428309384510
 18       0.000000000002
 19       0.276139762205
 20      -0.384760515114
 21      -0.083189234874
 22       0.428309384507
 23       0.000000000008
 24       0.276139762200
 Sym=     1a
 Ene= 3.93528196932025E+00
 Spin= Alpha
 Occup= 0.000000
  1      -0.078568321704
  2      -0.170953880664
  3      -1.763179968370
  4       0.000000000001
  5      -0.000000000009
  6       0.363573086348
  7      -0.000000000006
  8      -0.000000000002
  9       0.749784637764
 10       0.078080272769
 11       0.000000000009
 12       0.000000000002
 13      -1.177141239705
 14       0.000000000001
 15       1.072537898899
 16       0.211988685655
 17       0.596817574023
 18       0.000000000001
 19       0.502143172355
 20       1.072537898911
 21       0.211988685656
 22      -0.596817574027
 23       0.000000000001
 24       0.502143172356
 Sym=     1a
 Ene= 4.18753302225014E+00
 Spin= Alpha
 Occup= 0.000000
  1      -0.000000000001
  2      -0.000000000003
  3      -0.000000000015
  4       0.472444560613
  5      -0.000000000001
  6       0.000000000006
  7       1.115467281218
  8       0.000000000000
  9       0.000000000006
 10      -0.000000000000
 11      -1.316680033338
 12      -0.000000000001
 13      -0.000000000007
 14      -0.000000000005
 15       1.031706250633
 16       0.249295131797
 17       0.625158559659
 18      -0.000000000002
 19       0.447748199925
 20      -1.031706250615
 21      -0.249295131794
 22       0.625158559645
 23       0.000000000001
 24      -0.447748199917
