
                                 *****************
                                 * O   R   C   A *
                                 *****************

                                            #,                                       
                                            ###                                      
                                            ####                                     
                                            #####                                    
                                            ######                                   
                                           ########,                                 
                                     ,,################,,,,,                         
                               ,,#################################,,                 
                          ,,##########################################,,             
                       ,#########################################, ''#####,          
                    ,#############################################,,   '####,        
                  ,##################################################,,,,####,       
                ,###########''''           ''''###############################       
              ,#####''   ,,,,##########,,,,          '''####'''          '####       
            ,##' ,,,,###########################,,,                        '##       
           ' ,,###''''                  '''############,,,                           
         ,,##''                                '''############,,,,        ,,,,,,###''
      ,#''                                            '''#######################'''  
     '                                                          ''''####''''         
             ,#######,   #######,   ,#######,      ##                                
            ,#'     '#,  ##    ##  ,#'     '#,    #''#        ,####,   ,####,        
            ##       ##  ##   ,#'  ##            #'  '#       #'       #'  '#        
            ##       ##  #######   ##           ,######,      #####,   #    #        
            '#,     ,#'  ##    ##  '#,     ,#' ,#      #,     #,   #   #,  ,#        
             '#######'   ##     ##  '#######'  #'      '#     '####' # '####'        



                #########################################################
                #                        -***-                          #
                #          Department of theory and spectroscopy        #
                #                                                       #
                #                      Frank Neese                      #
                #                                                       #
                #     Directorship, Architecture, Infrastructure        #
                #                    SHARK, DRIVERS                     #
                #        Core code/Algorithms in most modules           #
                #                                                       #
                #        Max Planck Institute fuer Kohlenforschung      #
                #                Kaiser Wilhelm Platz 1                 #
                #                 D-45470 Muelheim/Ruhr                 #
                #                      Germany                          #
                #                                                       #
                #                  All rights reserved                  #
                #                        -***-                          #
                #########################################################


                         Program Version 6.0.0  -   RELEASE   -


 With contributions from (in alphabetic order):
   Daniel Aravena         : Magnetic Suceptibility
   Michael Atanasov       : Ab Initio Ligand Field Theory (pilot matlab implementation)
   Alexander A. Auer      : GIAO ZORA, VPT2 properties, NMR spectrum
   Ute Becker             : All parallelization in ORCA, NUMFREQ, NUMCALC
   Giovanni Bistoni       : ED, misc. LED, open-shell LED, HFLD
   Martin Brehm           : Molecular dynamics
   Dmytro Bykov           : pre 5.0 version of the SCF Hessian
   Marcos Casanova-Páez   : Triplet and SCS-CIS(D). UHF-(DLPNO)-IP/EA/STEOM-CCSD. UHF-CVS-IP/STEOM-CCSD
   Vijay G. Chilkuri      : MRCI spin determinant printing, contributions to CSF-ICE
   Pauline Colinet        : FMM embedding
   Dipayan Datta          : RHF DLPNO-CCSD density
   Achintya Kumar Dutta   : EOM-CC, STEOM-CC
   Nicolas Foglia         : Exact transition moments, OPA infrastructure, MCD improvements
   Dmitry Ganyushin       : Spin-Orbit,Spin-Spin,Magnetic field MRCI
   Miquel Garcia          : C-PCM and meta-GGA Hessian, CCSD/C-PCM, Gaussian charge scheme
   Tiago L. C. Gouveia    : GS-ROHF, GS-ROCIS
   Yang Guo               : DLPNO-NEVPT2, F12-NEVPT2, CIM, IAO-localization
   Andreas Hansen         : Spin unrestricted coupled pair/coupled cluster methods
   Ingolf Harden          : AUTO-CI MPn and infrastructure 
   Benjamin Helmich-Paris : MC-RPA, TRAH-(SCF,CASSCF), AVAS, COSX integrals, SCF dyn. polar.
   Lee Huntington         : MR-EOM, pCC
   Robert Izsak           : Overlap fitted RIJCOSX, COSX-SCS-MP3, EOM
   Riya Kayal             : Wick's Theorem for AUTO-CI, AUTO-CI UHF-CCSDT
   Emily Kempfer          : AUTO-CI, RHF CISDT and CCSDT
   Christian Kollmar      : KDIIS, OOCD, Brueckner-CCSD(T), CCSD density, CASPT2, CASPT2-K, improved NEVPT2
   Axel Koslowski         : Symmetry handling
   Simone Kossmann        : Meta GGA functionals, TD-DFT gradient, OOMP2, (MP2 Hessian; deprecated post 5.0)
   Lucas Lang             : DCDCAS
   Marvin Lechner         : AUTO-CI (C++ implementation), FIC-MRCC
   Spencer Leger          : CASSCF response
   Dagmar Lenk            : GEPOL surface, SMD, ORCA-2-JSON
   Dimitrios Liakos       : Extrapolation schemes; Compound Job, initial MDCI parallelization
   Dimitrios Manganas     : Further ROCIS development; embedding schemes. LFT, Crystal Embedding
   Dimitrios Pantazis     : SARC Basis sets
   Anastasios Papadopoulos: AUTO-CI, single reference methods and gradients
   Taras Petrenko         : pre 6.0 DFT Hessian and TD-DFT gradient, (ASA, deprecated), ECA, 1-Electron XAS/XES, NRVS
   Peter Pinski           : DLPNO-MP2, DLPNO-MP2 Gradient
   Christoph Reimann      : Effective Core Potentials
   Marius Retegan         : Local ZFS, SOC
   Christoph Riplinger    : Optimizer, TS searches, QM/MM, DLPNO-CCSD(T), (RO)-DLPNO pert. Triples
   Michael Roemelt        : Original ROCIS implementation
   Masaaki Saitow         : Open-shell DLPNO-CCSD energy and density
   Barbara Sandhoefer     : DKH picture change effects
   Kantharuban Sivalingam : CASSCF convergence/infrastructure, NEVPT2 and variants, FIC-MRCI
   Bernardo de Souza      : ESD, SOC TD-DFT
   Georgi Stoychev        : AutoAux, RI-MP2 NMR, DLPNO-MP2 response, X2C
   Van Anh Tran           : RI-MP2 g-tensors
   Willem Van den Heuvel  : Paramagnetic NMR
   Zikuan Wang            : NOTCH, Electric field optimization 
   Frank Wennmohs         : Technical directorship and infrastructure
   Hang Xu                : AUTO-CI-Response properties 


 We gratefully acknowledge several colleagues who have allowed us to
 interface, adapt or use parts of their codes:
   Stefan Grimme, W. Hujo, H. Kruse, P. Pracht,  : VdW corrections, initial TS optimization,
                  C. Bannwarth, S. Ehlert,         DFT functionals, gCP, sTDA/sTD-DF
                  L. Wittmann, M. Mueller
   Ed Valeev, F. Pavosevic, A. Kumar             : LibInt (2-el integral package), F12 methods
   Garnet Chan, S. Sharma, J. Yang, R. Olivares  : DMRG
   Ulf Ekstrom                                   : XCFun DFT Library
   Mihaly Kallay                                 : mrcc  (arbitrary order and MRCC methods)
   Frank Weinhold                                : gennbo (NPA and NBO analysis)
   Simon Mueller                                 : openCOSMO-RS
   Christopher J. Cramer and Donald G. Truhlar   : smd solvation model
   Lars Goerigk                                  : TD-DFT with DH, B97 family of functionals
   V. Asgeirsson, H. Jonsson                     : NEB implementation
   FAccTs GmbH                                   : IRC, NEB, NEB-TS, DLPNO-Multilevel, CI-OPT
                                                   MM, QMMM, 2- and 3-layer-ONIOM, Crystal-QMMM,
                                                   LR-CPCM, SF, NACMEs, symmetry and pop. for TD-DFT,
                                                   nearIR, NL-DFT gradient (VV10), updates on ESD,
                                                   ML-optimized integration grids, MBIS, APM,
                                                   GOAT, DOCKER, SOLVATOR, interface openCOSMO-RS
   S Lehtola, MJT Oliveira, MAL Marques          : LibXC Library
   Liviu Ungur et al                             : ANISO software


 Your calculation uses the libint2 library for the computation of 2-el integrals
 For citations please refer to: http://libint.valeyev.net

 Your ORCA version has been built with support for libXC version: 6.2.2
 For citations please refer to: https://libxc.gitlab.io

 This ORCA versions uses:
   CBLAS   interface :  Fast vector & matrix operations
   LAPACKE interface :  Fast linear algebra routines
   Shared memory     :  Shared parallel matrices


NOTE: MaxCore=400 MB was set to SCF,MP2,MDCI,CIPSI,MRCI and CIS
      => If you want to overwrite this, your respective input block should be placed after the MaxCore statement
================================================================================

----- Orbital basis set information -----
Your calculation utilizes the basis: def2-SVP
   F. Weigend and R. Ahlrichs, Phys. Chem. Chem. Phys. 7, 3297 (2005).

================================================================================
                                        WARNINGS
                       Please study these warnings very carefully!
================================================================================


================================================================================
                                       INPUT FILE
================================================================================
NAME = D:\hty\creat\code\github\orcacal\Test\ORCA_cal\ORCA_structure\H2O_1\input.inp
|  1> ! HF DEF2-SVP LARGEPRINT
|  2> # Creat by orcacal
|  3> * xyz 0 1
|  4> C -0.000040 -0.006496 0.133566
|  5> Cl -0.047930 1.695922 -0.377036
|  6> Cl -1.426948 -0.856081 -0.501549
|  7> Cl 1.475290 -0.772966 -0.496639
|  8> H -0.000372 -0.060380 1.241657
|  9> *
| 10> % pal nprocs 20 end
| 11> % maxcore 400
| 12> 
| 13>                          ****END OF INPUT****
================================================================================

                       ****************************
                       * Single Point Calculation *
                       ****************************

---------------------------------
CARTESIAN COORDINATES (ANGSTROEM)
---------------------------------
  C     -0.000040   -0.006496    0.133566
  Cl    -0.047930    1.695922   -0.377036
  Cl    -1.426948   -0.856081   -0.501549
  Cl     1.475290   -0.772966   -0.496639
  H     -0.000372   -0.060380    1.241657

----------------------------
CARTESIAN COORDINATES (A.U.)
----------------------------
  NO LB      ZA    FRAG     MASS         X           Y           Z
   0 C     6.0000    0    12.011   -0.000076   -0.012276    0.252403
   1 Cl   17.0000    0    35.453   -0.090575    3.204828   -0.712495
   2 Cl   17.0000    0    35.453   -2.696541   -1.617759   -0.947790
   3 Cl   17.0000    0    35.453    2.787894   -1.460694   -0.938512
   4 H     1.0000    0     1.008   -0.000703   -0.114102    2.346392

--------------------------------
INTERNAL COORDINATES (ANGSTROEM)
--------------------------------
 C      0   0   0     0.000000000000     0.00000000     0.00000000
 Cl     1   0   0     1.777986192643     0.00000000     0.00000000
 Cl     1   2   0     1.777985426238   109.47081059     0.00000000
 Cl     1   2   3     1.777985717554   109.47078347   119.99905470
 H      1   2   3     1.109400405607   109.47156380   239.99954314

---------------------------
INTERNAL COORDINATES (A.U.)
---------------------------
 C      0   0   0     0.000000000000     0.00000000     0.00000000
 Cl     1   0   0     3.359906973988     0.00000000     0.00000000
 Cl     1   2   0     3.359905525693   109.47081059     0.00000000
 Cl     1   2   3     3.359906076200   109.47078347   119.99905470
 H      1   2   3     2.096462939458   109.47156380   239.99954314

---------------------
BASIS SET INFORMATION
---------------------
There are 3 groups of distinct atoms

 Group   1 Type C   : 7s4p1d contracted to 3s2p1d pattern {511/31/1}
 Group   2 Type Cl  : 10s7p1d contracted to 4s3p1d pattern {5311/511/1}
 Group   3 Type H   : 4s1p contracted to 2s1p pattern {31/1}

Atom   0C    basis set group =>   1
Atom   1Cl   basis set group =>   2
Atom   2Cl   basis set group =>   2
Atom   3Cl   basis set group =>   2
Atom   4H    basis set group =>   3

-------------------------
BASIS SET IN INPUT FORMAT
-------------------------

 # Basis set for element : H 
 NewGTO H 
 S 3 
   1      13.0107010000      0.0334854848
   2       1.9622572000      0.2347218709
   3       0.4445379600      0.8137702853
 S 1 
   1       0.1219496200      1.0000000000
 P 1 
   1       0.8000000000      1.0000000000
  end;

 # Basis set for element : C 
 NewGTO C 
 S 5 
   1    1238.4016938000      0.0055173650
   2     186.2900499200      0.0410888285
   3      42.2511763460      0.1822538213
   4      11.6765579320      0.4682845944
   5       3.5930506482      0.4457581734
 S 1 
   1       0.4024514736      1.0000000000
 S 1 
   1       0.1309018267      1.0000000000
 P 3 
   1       9.4680970621      0.0568883320
   2       2.0103545142      0.3129405934
   3       0.5477100471      0.7606501651
 P 1 
   1       0.1526861379      1.0000000000
 D 1 
   1       0.8000000000      1.0000000000
  end;

 # Basis set for element : Cl
 NewGTO Cl
 S 5 
   1   10449.8275660000      0.0054265952
   2    1571.7365221000      0.0406263782
   3     357.1206552300      0.1835974786
   4     100.2518593500      0.4743894876
   5      30.8127275540      0.4373518111
 S 3 
   1      51.9237894340     -0.0927541549
   2       5.7045760975      0.5638082555
   3       2.3508376809      0.5036704463
 S 1 
   1       0.4460512467      1.0000000000
 S 1 
   1       0.1684885619      1.0000000000
 P 5 
   1     307.6679056900     -0.0088797025
   2      72.1020155150     -0.0642840717
   3      22.5326802620     -0.2428873974
   4       7.8991765444     -0.4834083637
   5       2.8767268321     -0.3895256388
 P 1 
   1       0.7745936396      1.0000000000
 P 1 
   1       0.2103769970      1.0000000000
 D 1 
   1       0.6500000000      1.0000000000
  end;



           ************************************************************
           *        Program running with 20 parallel MPI-processes    *
           *              working on a common directory               *
           ************************************************************
------------------------------------------------------------------------------
                             ORCA STARTUP CALCULATIONS
------------------------------------------------------------------------------
------------------------------------------------------------------------------
                   ___                                                        
                  /   \      - P O W E R E D   B Y -                         
                 /     \                                                     
                 |  |  |   _    _      __       _____    __    __             
                 |  |  |  | |  | |    /  \     |  _  \  |  |  /  |          
                  \  \/   | |  | |   /    \    | | | |  |  | /  /          
                 / \  \   | |__| |  /  /\  \   | |_| |  |  |/  /          
                |  |  |   |  __  | /  /__\  \  |    /   |      \           
                |  |  |   | |  | | |   __   |  |    \   |  |\   \          
                \     /   | |  | | |  |  |  |  | |\  \  |  | \   \       
                 \___/    |_|  |_| |__|  |__|  |_| \__\ |__|  \__/        
                                                                              
                      - O R C A' S   B I G   F R I E N D -                    
                                      &                                       
                       - I N T E G R A L  F E E D E R -                       
                                                                              
 v1 FN, 2020, v2 2021, v3 2022-2024                                           
------------------------------------------------------------------------------


----------------------
SHARK INTEGRAL PACKAGE
----------------------

Number of atoms                             ...      5
Number of basis functions                   ...     73
Number of shells                            ...     33
Maximum angular momentum                    ...      2
Integral batch strategy                     ... SHARK/LIBINT Hybrid
RI-J (if used) integral strategy            ... SPLIT-RIJ (Revised 2003 algorithm where possible)
Printlevel                                  ...      1
Contraction scheme used                     ... SEGMENTED contraction
Prescreening option                         ... SCHWARTZ
   Thresh                                   ... 1.000e-10
   Tcut                                     ... 1.000e-11
   Tpresel                                  ... 1.000e-11 
Coulomb Range Separation                    ... NOT USED
Exchange Range Separation                   ... NOT USED
Multipole approximations                    ... NOT USED
Finite Nucleus Model                        ... NOT USED
CABS basis                                  ... NOT available
Auxiliary Coulomb fitting basis             ... NOT available
Auxiliary J/K fitting basis                 ... NOT available
Auxiliary Correlation fitting basis         ... NOT available
Auxiliary 'external' fitting basis          ... NOT available

Checking pre-screening integrals            ... done (  0.0 sec) Dimension = 33
Check shell pair data                       ... done (  0.0 sec)
Shell pair information
Shell pair cut-off parameter TPreSel        ...   1.0e-11
Total number of shell pairs                 ...       561
Shell pairs after pre-screening             ...       531
Total number of primitive shell pairs       ...      2641
Primitive shell pairs kept                  ...      1857
          la=0 lb=0:    138 shell pairs
          la=1 lb=0:    192 shell pairs
          la=1 lb=1:     75 shell pairs
          la=2 lb=0:     68 shell pairs
          la=2 lb=1:     48 shell pairs
          la=2 lb=2:     10 shell pairs

Calculating one electron integrals          ... done (  0.0 sec)
Calculating Nuclear repulsion               ... done (  0.0 sec) ENN=    263.251777009473 Eh

Diagonalization of the overlap matrix:
Smallest eigenvalue                        ... 6.555e-03
Time for diagonalization                   ...    0.015 sec
Threshold for overlap eigenvalues          ... 1.000e-07
Number of eigenvalues below threshold      ... 0
Time for construction of square roots      ...    0.005 sec
Total time needed                          ...    0.030 sec

-------------------
DFT GRID GENERATION
-------------------

General Integration Accuracy     IntAcc      ... 4.388
Radial Grid Type                 RadialGrid  ... OptM3 with GC (2021)
Angular Grid (max. ang.)         AngularGrid ... 4 (Lebedev-302)
Angular grid pruning method      GridPruning ... 4 (adaptive)
Weight generation scheme         WeightScheme... mBecke (2022)
Basis function cutoff            BFCut       ... 1.0000e-10
Integration weight cutoff        WCut        ... 1.0000e-14
Partially contracted basis set               ... off
Rotationally invariant grid construction     ... off
Angular grids for H and He will be reduced by one unit

Total number of grid points                  ...    31413
Total number of batches                      ...      493
Average number of points per batch           ...       63
Average number of grid points per atom       ...     6283
Initializing property integral containers    ... done (  0.0 sec)

SHARK setup successfully completed in   0.4 seconds

Maximum memory used throughout the entire STARTUP-calculation: 7.8 MB


           ************************************************************
           *        Program running with 20 parallel MPI-processes    *
           *              working on a common directory               *
           ************************************************************
-------------------------------------------------------------------------------
                                 ORCA GUESS
                   Start orbitals & Density for SCF / CASSCF
-------------------------------------------------------------------------------

------------
SCF SETTINGS
------------
Hamiltonian:
 Ab initio Hamiltonian  Method          .... Hartree-Fock(GTOs)


General Settings:
 Integral files         IntName         .... D:\hty\creat\code\github\orcacal\Test\ORCA_cal\ORCA_structure\H2O_1\input
 Hartree-Fock type      HFTyp           .... RHF
 Total Charge           Charge          ....    0
 Multiplicity           Mult            ....    1
 Number of Electrons    NEL             ....   58
 Basis Dimension        Dim             ....   73
 Nuclear Repulsion      ENuc            ....    263.2517770095 Eh

Convergence Acceleration:
 AO-DIIS                CNVDIIS         .... on
   Start iteration      DIISMaxIt       ....    12
   Startup error        DIISStart       ....  0.200000
   # of expansion vecs  DIISMaxEq       ....     5
   Bias factor          DIISBfac        ....   1.050
   Max. coefficient     DIISMaxC        ....  10.000
 MO-DIIS                CNVKDIIS        .... off
 Trust-Rad. Augm. Hess. CNVTRAH         .... auto
   Auto Start mean grad. ratio tolernc. ....  1.125000
   Auto Start start iteration           ....    50
   Auto Start num. interpolation iter.  ....    10
   Max. Number of Micro iterations      ....    24
   Max. Number of Macro iterations      .... Maxiter - #DIIS iter
   Number of Davidson start vectors     ....     2
   Converg. threshold    (grad. norm)   ....   5.000e-05
   Grad. Scal. Fac. for Micro threshold ....   0.100
   Minimum threshold for Micro iter.    ....   1.000e-02
   NR start threshold (gradient norm)   ....   1.000e-04
   Initial trust radius                 ....   0.400
   Minimum AH scaling param. (alpha)    ....   1.000
   Maximum AH scaling param. (alpha)    .... 1000.000
   Quad. conv. algorithm                .... NR
   White noise on init. David. guess    .... on
   Maximum white noise                  ....   0.010
   Pseudo random numbers                .... off
   Inactive MOs                         .... canonical
   Orbital update algorithm             .... Taylor
   Preconditioner                       .... Diag
   Full preconditioner red. dimension   ....   250
 SOSCF                  CNVSOSCF        .... on
   Start iteration      SOSCFMaxIt      ....   150
   Startup grad/error   SOSCFStart      ....  0.003300
   Hessian update       SOSCFHessUp     .... L-BFGS
 Level Shifting         CNVShift        .... on
   Level shift para.    LevelShift      ....    0.2500
   Turn off err/grad.   ShiftErr        ....    0.0010
 Zerner damping         CNVZerner       .... off
 Static damping         CNVDamp         .... on
   Fraction old density DampFac         ....    0.7000
   Max. Damping (<1)    DampMax         ....    0.9800
   Min. Damping (>=0)   DampMin         ....    0.0000
   Turn off err/grad.   DampErr         ....    0.1000

SCF Procedure:
 Maximum # iterations   MaxIter         ....   125
 SCF integral mode      SCFMode         .... Direct
   Integral package                     .... SHARK and LIBINT hybrid scheme
 Reset frequency        DirectResetFreq ....    20
 Integral Threshold     Thresh          ....  1.000e-10 Eh
 Primitive CutOff       TCut            ....  1.000e-11 Eh

Convergence Tolerance:
 Convergence Check Mode ConvCheckMode   .... Total+1el-Energy
 Convergence forced     ConvForced      .... 0
 Energy Change          TolE            ....  1.000e-06 Eh
 1-El. energy change                    ....  1.000e-03 Eh
 Orbital Gradient       TolG            ....  5.000e-05
 Orbital Rotation angle TolX            ....  5.000e-05
 DIIS Error             TolErr          ....  1.000e-06

------------------------------
INITIAL GUESS: MODEL POTENTIAL
------------------------------
Loading Hartree-Fock densities                     ... done
Calculating cut-offs                               ... done
Initializing the effective Hamiltonian             ... done
Setting up the integral package (SHARK)            ... done
Starting the Coulomb interaction                   ... done (   0.0 sec)
Making the grid                                    ... done (   0.1 sec)
Mapping shells                                     ... done
Starting the XC term evaluation                    ... done (   0.0 sec)
Transforming the Hamiltonian                       ... done (   0.0 sec)
Diagonalizing the Hamiltonian                      ... done (   0.0 sec)
Back transforming the eigenvectors                 ... done (   0.0 sec)
Now organizing SCF variables                       ... done
                      ------------------
                      INITIAL GUESS DONE (   0.2 sec)
                      ------------------
----------------------
INITIAL GUESS ORBITALS
----------------------
                      0         1         2         3         4         5   
                 -100.28911 -100.28911 -100.28904  -9.92737  -9.18275  -9.18275
                   2.00000   2.00000   2.00000   2.00000   2.00000   2.00000
                  --------  --------  --------  --------  --------  --------
  0C   1s         0.000000 -0.000000 -0.000113  0.985759  0.000021 -0.000040
  0C   2s        -0.000001  0.000000  0.001223  0.059934 -0.000103  0.000199
  0C   3s         0.000003 -0.000002 -0.006495 -0.050931  0.000517 -0.000999
  0C   1pz        0.000000 -0.000001 -0.000113  0.003104  0.000017 -0.000046
  0C   1px       -0.000011 -0.000004  0.000000  0.000001 -0.000406 -0.000063
  0C   1py        0.000004 -0.000011  0.000005 -0.000156  0.000062 -0.000404
  0C   2pz       -0.000027  0.000084  0.001108  0.002714 -0.000125  0.000434
  0C   2px        0.001720  0.000553  0.000000 -0.000002  0.005533  0.000861
  0C   2py       -0.000552  0.001718 -0.000055 -0.000128 -0.000849  0.005511
  0C   1dz2      -0.000002  0.000008 -0.000111  0.002727  0.000009  0.000013
  0C   1dxz       0.000104  0.000034  0.000000 -0.000002  0.000544  0.000088
  0C   1dyz      -0.000029  0.000093  0.000009 -0.000229 -0.000072  0.000481
  0C   1dx2y2    -0.000048  0.000114  0.000000 -0.000006 -0.000163  0.000675
  0C   1dxy       0.000105  0.000044  0.000000 -0.000001  0.000626  0.000155
  1Cl  1s         0.270085 -0.764711  0.574003 -0.000027  0.041092 -0.240609
  1Cl  2s         0.006535 -0.018503  0.013816  0.000431 -0.133731  0.783060
  1Cl  3s        -0.003107  0.008797 -0.006367 -0.002594 -0.008488  0.049588
  1Cl  4s         0.002156 -0.006106  0.005122  0.010622  0.004025 -0.023659
  1Cl  1pz       -0.000007  0.000019 -0.000022 -0.000040  0.000055 -0.000323
  1Cl  1px       -0.000023 -0.000005 -0.000001 -0.000007 -0.000058 -0.000040
  1Cl  1py        0.000033 -0.000094  0.000039  0.000245 -0.000176  0.001030
  1Cl  2pz       -0.000036  0.000100 -0.000113 -0.000007 -0.000062  0.000375
  1Cl  2px       -0.000115 -0.000025 -0.000006 -0.000024 -0.000391 -0.000019
  1Cl  2py        0.000166 -0.000480  0.000216  0.000824  0.000309 -0.001818
  1Cl  3pz        0.000141 -0.000399  0.000390  0.000079  0.000194 -0.001170
  1Cl  3px        0.000068 -0.000021  0.000039  0.000117  0.000358 -0.000064
  1Cl  3py       -0.000500  0.001420 -0.001367 -0.004069 -0.000745  0.004463
  1Cl  1dz2      -0.000030  0.000085 -0.000056  0.000510 -0.000034  0.000186
  1Cl  1dxz      -0.000077 -0.000030  0.000002 -0.000032 -0.000238 -0.000049
  1Cl  1dyz      -0.000036  0.000094 -0.000068  0.001139 -0.000032  0.000150
  1Cl  1dx2y2    -0.000043  0.000124 -0.000194  0.001358 -0.000019  0.000175
  1Cl  1dxy      -0.000011  0.000004 -0.000011  0.000076 -0.000095 -0.000008
  2Cl  1s         0.526958  0.616742  0.573718 -0.000027  0.188973  0.174883
  2Cl  2s         0.012750  0.014923  0.013809  0.000431 -0.615011 -0.569170
  2Cl  3s        -0.006062 -0.007095 -0.006364 -0.002594 -0.038931 -0.035947
  2Cl  4s         0.004207  0.004925  0.005120  0.010623  0.018594  0.017273
  2Cl  1pz       -0.000017 -0.000022 -0.000025 -0.000058  0.000314  0.000286
  2Cl  1px       -0.000064 -0.000056 -0.000032 -0.000207  0.000660  0.000662
  2Cl  1py       -0.000017 -0.000052 -0.000019 -0.000125  0.000445  0.000342
  2Cl  2pz       -0.000090 -0.000112 -0.000128 -0.000068 -0.000391 -0.000391
  2Cl  2px       -0.000325 -0.000285 -0.000179 -0.000701 -0.001327 -0.000916
  2Cl  2py       -0.000091 -0.000260 -0.000104 -0.000429 -0.000503 -0.000893
  2Cl  3pz        0.000345  0.000407  0.000490  0.000381  0.001172  0.001132
  2Cl  3px        0.000843  0.000941  0.001146  0.003458  0.003064  0.002618
  2Cl  3py        0.000453  0.000604  0.000683  0.002114  0.001572  0.001866
  2Cl  1dz2      -0.000045 -0.000062 -0.000046  0.000354 -0.000117 -0.000124
  2Cl  1dxz       0.000034  0.000106  0.000078 -0.001114  0.000041  0.000213
  2Cl  1dyz       0.000094  0.000003  0.000043 -0.000655  0.000208 -0.000075
  2Cl  1dx2y2     0.000051  0.000035  0.000088 -0.000617  0.000132 -0.000012
  2Cl  1dxy       0.000067  0.000085  0.000167 -0.001111  0.000087  0.000155
  3Cl  1s        -0.797852  0.148474  0.573233 -0.000027 -0.244982  0.094542
  3Cl  2s        -0.019305  0.003592  0.013797  0.000431  0.797302 -0.307697
  3Cl  3s         0.009178 -0.001708 -0.006358 -0.002593  0.050403 -0.019407
  3Cl  4s        -0.006371  0.001186  0.005116  0.010623 -0.024157  0.009358
  3Cl  1pz        0.000027 -0.000006 -0.000025 -0.000058 -0.000402  0.000152
  3Cl  1px       -0.000087  0.000005  0.000033  0.000214  0.000913 -0.000388
  3Cl  1py        0.000041 -0.000029 -0.000017 -0.000113 -0.000501  0.000135
  3Cl  2pz        0.000139 -0.000031 -0.000128 -0.000065  0.000515 -0.000221
  3Cl  2px       -0.000445  0.000026  0.000185  0.000724 -0.001633  0.000413
  3Cl  2py        0.000210 -0.000144 -0.000094 -0.000388  0.000709 -0.000629
  3Cl  3pz       -0.000520  0.000099  0.000486  0.000369 -0.001535  0.000624
  3Cl  3px        0.001289 -0.000213 -0.001184 -0.003574  0.004027 -0.001395
  3Cl  3py       -0.000660  0.000174  0.000616  0.001913 -0.001971  0.001091
  3Cl  1dz2       0.000074 -0.000020 -0.000046  0.000361  0.000155 -0.000075
  3Cl  1dxz       0.000096 -0.000058 -0.000080  0.001145  0.000127 -0.000175
  3Cl  1dyz      -0.000070 -0.000060  0.000038 -0.000587 -0.000163 -0.000155
  3Cl  1dx2y2    -0.000074 -0.000001  0.000107 -0.000744 -0.000142 -0.000046
  3Cl  1dxy       0.000098 -0.000024 -0.000156  0.001036  0.000133 -0.000117
  4H   1s        -0.000000  0.000000  0.000520 -0.005486 -0.000042  0.000082
  4H   2s        -0.000000  0.000000  0.000251  0.011408 -0.000010  0.000018
  4H   1pz        0.000001 -0.000003  0.000004  0.004655 -0.000001 -0.000001
  4H   1px       -0.000057 -0.000018 -0.000000 -0.000001 -0.000079 -0.000012
  4H   1py        0.000018 -0.000057 -0.000000 -0.000226  0.000012 -0.000079
                      6         7         8         9        10        11   
                  -9.18267  -7.04017  -7.04015  -7.04011  -7.03844  -7.03842
                   2.00000   2.00000   2.00000   2.00000   2.00000   2.00000
                  --------  --------  --------  --------  --------  --------
  0C   1s        -0.000745  0.000090 -0.000143 -0.000273  0.000004  0.000010
  0C   2s         0.003719 -0.000542  0.000860  0.001636 -0.000048 -0.000101
  0C   3s        -0.018674  0.004762 -0.007565 -0.014414  0.000094  0.000340
  0C   1pz       -0.000492  0.000090 -0.000142 -0.000268  0.000046  0.000104
  0C   1px       -0.000008  0.000006  0.000002 -0.000000 -0.000087 -0.000119
  0C   1py        0.000047 -0.000008  0.000016  0.000012 -0.000054  0.000387
  0C   2pz        0.003060 -0.000737  0.001229  0.001903 -0.000446 -0.000953
  0C   2px        0.000106  0.003748  0.001697  0.000358  0.000708  0.000939
  0C   2py       -0.000468 -0.001238  0.003199 -0.002260  0.000455 -0.003002
  0C   1dz2      -0.000549  0.000184 -0.000276 -0.000635 -0.000014 -0.000018
  0C   1dxz       0.000011  0.000627  0.000287  0.000057  0.000009  0.000000
  0C   1dyz       0.000019 -0.000201  0.000509 -0.000263  0.000003 -0.000024
  0C   1dx2y2    -0.000039 -0.000354  0.000698 -0.000481  0.000009  0.000043
  0C   1dxy       0.000009  0.000751  0.000410  0.000033 -0.000001  0.000009
  1Cl  1s         0.194537 -0.000086  0.000282 -0.000634 -0.000002  0.000013
  1Cl  2s        -0.633274  0.000363 -0.001155  0.002469  0.000018 -0.000093
  1Cl  3s        -0.039006 -0.000565  0.001741 -0.003476 -0.000094  0.000363
  1Cl  4s         0.019979  0.000291 -0.001920  0.008122 -0.000146  0.000675
  1Cl  1pz        0.000239  0.029954 -0.103528  0.255051  0.058364  0.717438
  1Cl  1px        0.000024  0.007569 -0.007074  0.022890 -0.645520 -0.229803
  1Cl  1py       -0.000925 -0.105682  0.359404 -0.860258  0.001372  0.202008
  1Cl  2pz       -0.000443 -0.001742  0.006035 -0.014935 -0.003304 -0.041016
  1Cl  2px       -0.000033 -0.000627  0.000335 -0.001355  0.037091  0.013077
  1Cl  2py        0.000937  0.006298 -0.021272  0.050273 -0.000027 -0.011693
  1Cl  3pz        0.001295  0.000339 -0.001292  0.003658  0.000489  0.007445
  1Cl  3px        0.000120  0.000157 -0.000058  0.000347 -0.006832 -0.002207
  1Cl  3py       -0.004037 -0.001170  0.004476 -0.012551  0.000063  0.001690
  1Cl  1dz2      -0.000063 -0.000005  0.000019 -0.000054 -0.000009  0.000066
  1Cl  1dxz      -0.000000 -0.000156 -0.000075 -0.000010  0.000037 -0.000010
  1Cl  1dyz      -0.000150  0.000014 -0.000030 -0.000071  0.000011 -0.000115
  1Cl  1dx2y2    -0.000394  0.000092 -0.000151 -0.000198  0.000004 -0.000037
  1Cl  1dxy      -0.000024 -0.000049 -0.000035 -0.000015  0.000156  0.000003
  2Cl  1s         0.176440 -0.000246 -0.000621 -0.000215 -0.000002  0.000000
  2Cl  2s        -0.574379  0.001000  0.002442  0.000797 -0.000003  0.000012
  2Cl  3s        -0.035280 -0.001483 -0.003479 -0.001045  0.000070 -0.000050
  2Cl  4s         0.018195  0.001894  0.007135  0.003887  0.000168 -0.000484
  2Cl  1pz        0.000277  0.112563  0.299726  0.113083  0.135849 -0.174521
  2Cl  1px        0.000712  0.265501  0.689458  0.256448  0.270230 -0.181477
  2Cl  1py        0.000435  0.158571  0.426372  0.154402 -0.533962  0.416499
  2Cl  2pz       -0.000471 -0.006581 -0.017551 -0.006622 -0.007770  0.009964
  2Cl  2px       -0.000678 -0.015759 -0.040353 -0.014886 -0.015501  0.010370
  2Cl  2py       -0.000368 -0.009238 -0.025042 -0.008840  0.030671 -0.023843
  2Cl  3pz        0.001475  0.001450  0.004221  0.001800  0.001478 -0.001729
  2Cl  3px        0.003108  0.003424  0.009766  0.004201  0.002858 -0.002254
  2Cl  3py        0.001822  0.001974  0.006017  0.002477 -0.005499  0.004303
  2Cl  1dz2      -0.000029 -0.000008 -0.000050 -0.000007  0.000040  0.000034
  2Cl  1dxz       0.000146 -0.000087  0.000086  0.000030  0.000013 -0.000015
  2Cl  1dyz       0.000090  0.000098 -0.000038  0.000106  0.000045  0.000039
  2Cl  1dx2y2     0.000178  0.000004  0.000006  0.000136  0.000088 -0.000175
  2Cl  1dxy       0.000324 -0.000108  0.000081  0.000188 -0.000044  0.000045
  3Cl  1s         0.168736  0.000662 -0.000185 -0.000145 -0.000000 -0.000009
  3Cl  2s        -0.549305 -0.002619  0.000705  0.000517  0.000009  0.000080
  3Cl  3s        -0.033694  0.003747 -0.000964 -0.000639 -0.000043 -0.000357
  3Cl  4s         0.017436 -0.007203  0.002757  0.003176 -0.000220 -0.000713
  3Cl  1pz        0.000262 -0.311578  0.091858  0.078371 -0.031577 -0.220921
  3Cl  1px       -0.000712  0.760621 -0.218352 -0.185631  0.177971  0.045810
  3Cl  1py        0.000377 -0.401954  0.120879  0.095707  0.358955  0.249408
  3Cl  2pz       -0.000453  0.018242 -0.005388 -0.004591  0.001800  0.012675
  3Cl  2px        0.000646 -0.044632  0.012622  0.010703 -0.010260 -0.002520
  3Cl  2py       -0.000309  0.023542 -0.007184 -0.005418 -0.020722 -0.014422
  3Cl  3pz        0.001416 -0.004342  0.001387  0.001324 -0.000327 -0.002510
  3Cl  3px       -0.003084  0.010615 -0.003327 -0.003249  0.002040  0.000956
  3Cl  3py        0.001582 -0.005571  0.001880  0.001648  0.003803  0.002737
  3Cl  1dz2      -0.000025  0.000045 -0.000025 -0.000004  0.000007 -0.000043
  3Cl  1dxz      -0.000146  0.000019 -0.000113 -0.000040 -0.000026  0.000067
  3Cl  1dyz       0.000074 -0.000043 -0.000114  0.000091 -0.000040  0.000000
  3Cl  1dx2y2     0.000209 -0.000026  0.000008  0.000155 -0.000097 -0.000176
  3Cl  1dxy      -0.000298  0.000017 -0.000122 -0.000178 -0.000040 -0.000057
  4H   1s         0.001536 -0.000389  0.000619  0.001188  0.000124  0.000192
  4H   2s         0.000353 -0.000399  0.000634  0.001213  0.000057  0.000080
  4H   1pz        0.000060  0.000070 -0.000113 -0.000207  0.000015  0.000036
  4H   1px       -0.000002 -0.000064 -0.000029 -0.000007 -0.000027 -0.000091
  4H   1py        0.000002  0.000017 -0.000046  0.000046 -0.000048  0.000086
                     12        13        14        15        16        17   
                  -7.03841  -7.03840  -7.03839  -7.03838  -0.87820  -0.78975
                   2.00000   2.00000   2.00000   2.00000   2.00000   2.00000
                  --------  --------  --------  --------  --------  --------
  0C   1s        -0.000003 -0.000033  0.000010 -0.000024 -0.160680  0.000018
  0C   2s         0.000034  0.000373 -0.000116  0.000271  0.323968 -0.000036
  0C   3s        -0.000069 -0.000867  0.000272 -0.000698  0.059425 -0.000017
  0C   1pz       -0.000039 -0.000355  0.000108 -0.000260 -0.040446  0.007209
  0C   1px       -0.000428 -0.000007 -0.000022  0.000003  0.000001  0.002656
  0C   1py       -0.000096  0.000161 -0.000087 -0.000099  0.002008  0.148158
  0C   2pz        0.000365  0.003386 -0.001037  0.002462 -0.015417  0.001759
  0C   2px        0.003344  0.000072  0.000235 -0.000003  0.000006  0.000650
  0C   2py        0.000735 -0.001365  0.000699  0.000843  0.000720  0.036527
  0C   1dz2       0.000010  0.000098 -0.000030  0.000063 -0.008251 -0.000722
  0C   1dxz       0.000014 -0.000005 -0.000022 -0.000001  0.000004 -0.000222
  0C   1dyz       0.000005 -0.000004  0.000008 -0.000022  0.000698 -0.008183
  0C   1dx2y2    -0.000011 -0.000042 -0.000012  0.000065  0.000020 -0.012486
  0C   1dxy      -0.000026  0.000016  0.000077  0.000019 -0.000002 -0.001249
  1Cl  1s        -0.000002  0.000009 -0.000003 -0.000003  0.040372  0.071791
  1Cl  2s         0.000016 -0.000090  0.000029  0.000031 -0.248289 -0.444858
  1Cl  3s        -0.000063  0.000425 -0.000113 -0.000257  0.332359  0.608131
  1Cl  4s        -0.000139  0.000672 -0.000358  0.000477  0.152721  0.288350
  1Cl  1pz       -0.189632 -0.566353 -0.002689  0.082482  0.008683  0.010041
  1Cl  1px       -0.460341 -0.197849 -0.483357 -0.059472  0.001022  0.001086
  1Cl  1py       -0.067328 -0.176845 -0.012044  0.024297 -0.036293 -0.024191
  1Cl  2pz        0.010835  0.032211  0.000176 -0.004616  0.013646  0.017220
  1Cl  2px        0.026239  0.011273  0.027288  0.003334  0.001642  0.001818
  1Cl  2py        0.003870  0.009892  0.000732 -0.001274 -0.058432 -0.041883
  1Cl  3pz       -0.001946 -0.005302 -0.000071  0.000307  0.013684  0.011863
  1Cl  3px       -0.004757 -0.001836 -0.004019 -0.000434  0.001318  0.001418
  1Cl  3py       -0.000608 -0.002069  0.000110 -0.000209 -0.046621 -0.030145
  1Cl  1dz2      -0.000016 -0.000001  0.000017 -0.000171 -0.008009 -0.004492
  1Cl  1dxz      -0.000045  0.000001 -0.000029 -0.000010  0.000239  0.000268
  1Cl  1dyz       0.000026  0.000007 -0.000008  0.000148 -0.008515 -0.008873
  1Cl  1dx2y2    -0.000002 -0.000076  0.000046 -0.000060 -0.015474 -0.011736
  1Cl  1dxy       0.000131 -0.000029 -0.000196 -0.000042 -0.000873 -0.000974
  2Cl  1s         0.000015  0.000005  0.000005  0.000005  0.040365 -0.038797
  2Cl  2s        -0.000120 -0.000030 -0.000041 -0.000054 -0.248243  0.240405
  2Cl  3s         0.000498  0.000056  0.000261  0.000291  0.332318 -0.328647
  2Cl  4s         0.000825  0.000415 -0.000362  0.000342  0.152634 -0.155817
  2Cl  1pz        0.452365 -0.437629 -0.277791 -0.566356  0.011339 -0.006065
  2Cl  1px       -0.305412 -0.040743 -0.007726  0.381260  0.030510 -0.014846
  2Cl  1py        0.187260  0.377661  0.212332 -0.214627  0.018284 -0.000045
  2Cl  2pz       -0.025909  0.024989  0.015785  0.032239  0.017914 -0.010442
  2Cl  2px        0.017645  0.002241  0.000456 -0.021533  0.049137 -0.025187
  2Cl  2py       -0.010588 -0.021363 -0.011907  0.012159  0.029480 -0.000934
  2Cl  3pz        0.004958 -0.004505 -0.002380 -0.005333  0.017109 -0.007204
  2Cl  3px       -0.002780  0.000099 -0.000141  0.003634  0.039074 -0.018927
  2Cl  3py        0.002099  0.003552  0.001481 -0.001679  0.023261  0.000587
  2Cl  1dz2       0.000085 -0.000116  0.000138  0.000009 -0.006808  0.001861
  2Cl  1dxz       0.000092 -0.000098  0.000067  0.000014  0.009072 -0.005018
  2Cl  1dyz       0.000059 -0.000021  0.000032 -0.000020  0.005467 -0.001947
  2Cl  1dx2y2    -0.000025  0.000116  0.000106 -0.000075  0.007021 -0.007943
  2Cl  1dxy       0.000069  0.000027 -0.000102  0.000088  0.013022 -0.002668
  3Cl  1s        -0.000011  0.000003 -0.000007  0.000005  0.040364 -0.033002
  3Cl  2s         0.000089 -0.000012  0.000053 -0.000050 -0.248237  0.204496
  3Cl  3s        -0.000389 -0.000058 -0.000278  0.000226  0.332303 -0.279550
  3Cl  4s        -0.000545  0.000548  0.000210  0.000420  0.152642 -0.132550
  3Cl  1pz       -0.392838 -0.212211  0.656040 -0.408756  0.011234 -0.005051
  3Cl  1px       -0.331664  0.130528  0.054300 -0.365312 -0.031548  0.013361
  3Cl  1py       -0.329546  0.411561 -0.411140 -0.367188  0.016506  0.002036
  3Cl  2pz        0.022501  0.012151 -0.037372  0.023268  0.017745 -0.008707
  3Cl  2px        0.019129 -0.007402 -0.003044  0.020640 -0.050813  0.022642
  3Cl  2py        0.018792 -0.023455  0.023286  0.020806  0.026615  0.002597
  3Cl  3pz       -0.004320 -0.002411  0.006219 -0.003878  0.016970 -0.005980
  3Cl  3px       -0.003266  0.000825  0.000472 -0.003532 -0.040402  0.017053
  3Cl  3py       -0.003613  0.004200 -0.003686 -0.003037  0.020984  0.003242
  3Cl  1dz2      -0.000093 -0.000162 -0.000069 -0.000023 -0.006862  0.001622
  3Cl  1dxz       0.000087  0.000109  0.000009  0.000000 -0.009305  0.004366
  3Cl  1dyz      -0.000064 -0.000035 -0.000016 -0.000025  0.004897 -0.001226
  3Cl  1dx2y2     0.000102  0.000048 -0.000051 -0.000083  0.008501 -0.007960
  3Cl  1dxy       0.000097 -0.000072 -0.000037 -0.000118 -0.012159  0.000851
  4H   1s        -0.000087 -0.000895  0.000277 -0.000617  0.070350  0.000003
  4H   2s        -0.000040 -0.000406  0.000126 -0.000275  0.007825  0.000018
  4H   1pz       -0.000013 -0.000120  0.000039 -0.000104 -0.011132  0.000091
  4H   1px       -0.000185 -0.000065 -0.000267 -0.000035  0.000004  0.000035
  4H   1py       -0.000018  0.000201 -0.000027 -0.000263  0.000545  0.001979
                     18        19        20        21        22        23   
                  -0.78974  -0.60807  -0.47929  -0.45111  -0.45111  -0.34341
                   2.00000   2.00000   2.00000   2.00000   2.00000   2.00000
                  --------  --------  --------  --------  --------  --------
  0C   1s        -0.000003 -0.197303 -0.034893  0.000005  0.000015  0.000005
  0C   2s         0.000009  0.432127  0.074763  0.000005 -0.000037 -0.000002
  0C   3s        -0.000023  0.139961  0.075665 -0.000019  0.000088 -0.000064
  0C   1pz       -0.000084  0.152698 -0.394372  0.003769  0.017318 -0.002730
  0C   1px        0.148353 -0.000070  0.000088 -0.355410  0.079414 -0.052195
  0C   1py       -0.002655 -0.007338  0.019238  0.079319  0.354981 -0.056559
  0C   2pz       -0.000003  0.052119 -0.199295  0.001885  0.008538 -0.000366
  0C   2px        0.036562  0.000024  0.000025 -0.174681  0.039034 -0.006194
  0C   2py       -0.000649 -0.002562  0.009654  0.039091  0.174791 -0.006688
  0C   1dz2       0.000007  0.002437 -0.010941 -0.000210 -0.000967 -0.000597
  0C   1dxz      -0.009386 -0.000005  0.000007  0.012007 -0.002727 -0.005062
  0C   1dyz       0.000092 -0.000199  0.000929 -0.002423 -0.011043 -0.007491
  0C   1dx2y2     0.001266 -0.000006  0.000025 -0.003125 -0.010058  0.018551
  0C   1dxy      -0.011625 -0.000003 -0.000001  0.008917 -0.002867  0.020938
  1Cl  1s        -0.003345 -0.030240 -0.011859 -0.004719 -0.018604 -0.000678
  1Cl  2s         0.020730  0.189988  0.074865  0.029935  0.118017  0.004800
  1Cl  3s        -0.028341 -0.264979 -0.095152 -0.040305 -0.158960 -0.016265
  1Cl  4s        -0.013428 -0.158292 -0.116981 -0.044397 -0.174891  0.015150
  1Cl  1pz       -0.000453  0.030263 -0.037833  0.016024  0.063627 -0.103037
  1Cl  1px        0.008875  0.001491  0.002810 -0.073499  0.023255  0.125509
  1Cl  1py        0.001383 -0.053820 -0.095835 -0.041447 -0.154416  0.024194
  1Cl  2pz       -0.000778  0.049357 -0.063483  0.027891  0.110753 -0.178192
  1Cl  2px        0.014199  0.002485  0.004872 -0.126384  0.040040  0.214927
  1Cl  2py        0.002361 -0.089414 -0.166365 -0.071678 -0.267124  0.044084
  1Cl  3pz       -0.000537  0.052279 -0.073054  0.026346  0.104640 -0.226664
  1Cl  3px        0.011959  0.002327  0.004388 -0.133435  0.041640  0.285531
  1Cl  3py        0.001743 -0.085141 -0.148518 -0.070455 -0.261483  0.044529
  1Cl  1dz2       0.000210 -0.002716 -0.018747 -0.002578 -0.010085 -0.004288
  1Cl  1dxz       0.000527  0.000477 -0.000343 -0.006197  0.002192 -0.000644
  1Cl  1dyz       0.000418 -0.017200  0.012813 -0.005358 -0.020531  0.010037
  1Cl  1dx2y2     0.000935 -0.014809 -0.019916 -0.007256 -0.022820  0.006987
  1Cl  1dxy      -0.006759 -0.000821 -0.001165  0.023984 -0.007467 -0.009959
  2Cl  1s        -0.060503 -0.030241 -0.011859 -0.013754  0.013398  0.000911
  2Cl  2s         0.374908  0.189992  0.074865  0.087249 -0.084995 -0.006450
  2Cl  3s        -0.512526 -0.265003 -0.095145 -0.117550  0.114522  0.021834
  2Cl  4s        -0.242973 -0.158263 -0.117025 -0.129081  0.125806 -0.020310
  2Cl  1pz       -0.010138  0.034143 -0.030571  0.057552 -0.051613  0.142352
  2Cl  1px       -0.014478  0.044506  0.083072  0.067292 -0.121932 -0.007887
  2Cl  1py       -0.014120  0.025803  0.052750  0.101903 -0.007868  0.045794
  2Cl  2pz       -0.017374  0.055808 -0.050880  0.100030 -0.089783  0.246348
  2Cl  2px       -0.025397  0.073979  0.144131  0.116664 -0.210616 -0.010604
  2Cl  2py       -0.023943  0.042921  0.091402  0.175773 -0.014037  0.080143
  2Cl  3pz       -0.012149  0.058390 -0.061762  0.095523 -0.084974  0.312523
  2Cl  3px       -0.017829  0.070221  0.129264  0.110804 -0.210087 -0.029386
  2Cl  3py       -0.017996  0.040540  0.082825  0.178300 -0.007968  0.097446
  2Cl  1dz2       0.002764 -0.000398 -0.020110 -0.004942  0.005641  0.007509
  2Cl  1dxz      -0.007253  0.015980 -0.007790  0.012374 -0.016968  0.011814
  2Cl  1dyz      -0.004942  0.009219 -0.004129  0.014139 -0.003108  0.006435
  2Cl  1dx2y2    -0.001256  0.006731  0.008978 -0.007409 -0.023194  0.000318
  2Cl  1dxy      -0.009834  0.011713  0.018711  0.021829 -0.005461  0.008358
  3Cl  1s         0.063847 -0.030240 -0.011857  0.018479  0.005219 -0.000230
  3Cl  2s        -0.395633  0.189988  0.074854 -0.117221 -0.033107  0.001627
  3Cl  3s         0.540841 -0.264974 -0.095131  0.157902  0.044594 -0.005551
  3Cl  4s         0.256455 -0.158329 -0.116988  0.173543  0.049051  0.005227
  3Cl  1pz        0.010604  0.033989 -0.030866 -0.074791 -0.017682 -0.028358
  3Cl  1px       -0.016619 -0.046020 -0.085840  0.122697  0.072645  0.087769
  3Cl  1py        0.013133  0.023209  0.047908 -0.086463  0.045907  0.152763
  3Cl  2pz        0.018176  0.055549 -0.051394 -0.130024 -0.030807 -0.049216
  3Cl  2px       -0.029033 -0.076493 -0.148932  0.212324  0.125302  0.151125
  3Cl  2py        0.022300  0.038609  0.083004 -0.149322  0.078770  0.261309
  3Cl  3pz        0.012694  0.058147 -0.062212 -0.123818 -0.028712 -0.061621
  3Cl  3px       -0.020567 -0.072601 -0.133579  0.206823  0.127274  0.196392
  3Cl  3py        0.016719  0.036440  0.075292 -0.148973  0.085451  0.348659
  3Cl  1dz2      -0.002971 -0.000492 -0.020071  0.007146  0.002659 -0.001873
  3Cl  1dxz      -0.007946 -0.016447  0.008165  0.019666  0.008679  0.002788
  3Cl  1dyz       0.004621  0.008244 -0.003742 -0.012718  0.004489 -0.000726
  3Cl  1dx2y2     0.003162  0.008076  0.011022 -0.007070 -0.023150 -0.013185
  3Cl  1dxy      -0.009779 -0.010879 -0.017544  0.021165 -0.008333 -0.006337
  4H   1s         0.000000  0.245724 -0.241342  0.000012  0.000021  0.000015
  4H   2s        -0.000005  0.029818 -0.052811 -0.000027 -0.000050 -0.000022
  4H   1pz       -0.000000 -0.021403  0.010625  0.000068  0.000318 -0.000198
  4H   1px        0.001980  0.000006 -0.000005 -0.006735  0.001504 -0.003799
  4H   1py       -0.000036  0.001045 -0.000513  0.001499  0.006713 -0.004124
                     24        25        26        27        28        29   
                  -0.34339  -0.31612  -0.31370  -0.31370  -0.29896  -0.05706
                   2.00000   2.00000   2.00000   2.00000   2.00000   0.00000
                  --------  --------  --------  --------  --------  --------
  0C   1s         0.000021 -0.017385 -0.000020 -0.000010  0.000003 -0.226833
  0C   2s        -0.000111  0.029468  0.000075  0.000069  0.000009  0.601785
  0C   3s         0.000297  0.068897 -0.000083 -0.000181 -0.000050  1.275761
  0C   1pz       -0.002565  0.188338 -0.001415 -0.002393 -0.000077 -0.282642
  0C   1px        0.056656 -0.000088  0.051536 -0.034795  0.000115 -0.000174
  0C   1py       -0.052084 -0.009135 -0.034790 -0.051465 -0.000002  0.014436
  0C   2pz       -0.000414  0.022002  0.001730  0.002435  0.000026 -0.347392
  0C   2px        0.006623  0.000066 -0.045481  0.030685 -0.000016 -0.000152
  0C   2py       -0.006136 -0.001093  0.030839  0.045625  0.000000  0.017996
  0C   1dz2      -0.000567  0.029084  0.000854  0.001238 -0.000011  0.005721
  0C   1dxz       0.005693  0.000003 -0.015137  0.010291 -0.000005 -0.000018
  0C   1dyz      -0.007063 -0.002481  0.009431  0.014086  0.000009 -0.000439
  0C   1dx2y2     0.020334 -0.000062  0.008863  0.011065  0.000012  0.000007
  0C   1dxy      -0.019188  0.000002 -0.009642  0.007894 -0.000023 -0.000011
  1Cl  1s        -0.000656 -0.001641 -0.001591 -0.002218 -0.000004 -0.012299
  1Cl  2s         0.004646  0.011055  0.010604  0.014781  0.000027  0.079504
  1Cl  3s        -0.015718 -0.024735 -0.021442 -0.029906 -0.000092 -0.061456
  1Cl  4s         0.014547 -0.006813 -0.011611 -0.016126  0.000094 -0.431521
  1Cl  1pz       -0.100762 -0.156953  0.098042  0.137218  0.000452 -0.012065
  1Cl  1px       -0.129549  0.000133 -0.095889  0.063768  0.175406 -0.003472
  1Cl  1py        0.016393  0.007719  0.074082  0.108863  0.005082  0.122523
  1Cl  2pz       -0.174262 -0.272181  0.170406  0.238502  0.000797 -0.020453
  1Cl  2px       -0.222001  0.000156 -0.166975  0.111000  0.307277 -0.005746
  1Cl  2py        0.030644  0.015835  0.129855  0.190750  0.008907  0.203095
  1Cl  3pz       -0.221646 -0.356876  0.214156  0.299732  0.000972 -0.054214
  1Cl  3px       -0.294098  0.000321 -0.208379  0.137941  0.385901 -0.016036
  1Cl  3py        0.027156  0.017341  0.170819  0.250269  0.011157  0.564698
  1Cl  1dz2      -0.004182  0.006241  0.002768  0.003883  0.000014 -0.040013
  1Cl  1dxz       0.000133 -0.000122 -0.004263  0.002997  0.003457  0.000432
  1Cl  1dyz       0.009850  0.004099  0.000985  0.001616  0.000096 -0.016039
  1Cl  1dx2y2     0.005649  0.003859  0.007260  0.009918 -0.000149 -0.075872
  1Cl  1dxy       0.010923  0.000228 -0.000949  0.001534  0.002339 -0.004315
  2Cl  1s        -0.000251 -0.001644 -0.001122  0.002484  0.000003 -0.012272
  2Cl  2s         0.001774  0.011076  0.007480 -0.016551 -0.000024  0.079331
  2Cl  3s        -0.005994 -0.024781 -0.015148  0.033457  0.000079 -0.061278
  2Cl  4s         0.005491 -0.006795 -0.008056  0.018228 -0.000057 -0.430614
  2Cl  1pz       -0.032287 -0.156611  0.069434 -0.142555  0.007300 -0.021003
  2Cl  1px       -0.096062 -0.000169 -0.103971  0.083594 -0.092257 -0.103527
  2Cl  1py        0.146432  0.007461  0.055633  0.114192  0.149419 -0.062927
  2Cl  2pz       -0.055994 -0.271727  0.120634 -0.247597  0.012805 -0.035252
  2Cl  2px       -0.165384 -0.002362 -0.181564  0.146681 -0.161630 -0.171597
  2Cl  2py        0.250396  0.011652  0.096571  0.199488  0.261769 -0.104299
  2Cl  3pz       -0.070345 -0.356242  0.151175 -0.310584  0.016005 -0.095458
  2Cl  3px       -0.215097 -0.000254 -0.231537  0.194955 -0.202908 -0.477111
  2Cl  3py        0.334503  0.017112  0.116900  0.256195  0.328675 -0.290009
  2Cl  1dz2      -0.002092  0.005599  0.002175 -0.003946  0.000211 -0.037171
  2Cl  1dxz      -0.003076 -0.004220 -0.003700  0.001589 -0.001799  0.022781
  2Cl  1dyz      -0.001017 -0.002886  0.003181  0.003246  0.002694  0.013605
  2Cl  1dx2y2    -0.013830 -0.001786 -0.000544  0.005847  0.002352  0.034268
  2Cl  1dxy       0.004554 -0.003063 -0.005094  0.009491 -0.001048  0.065946
  3Cl  1s         0.000921 -0.001649  0.002707 -0.000268  0.000001 -0.012260
  3Cl  2s        -0.006516  0.011111 -0.018042  0.001789 -0.000008  0.079253
  3Cl  3s         0.022049 -0.024866  0.036451 -0.003661  0.000028 -0.061163
  3Cl  4s        -0.020523 -0.006811  0.019928 -0.001771 -0.000001 -0.430387
  3Cl  1pz        0.143228 -0.156316 -0.157852  0.020464 -0.007542 -0.020605
  3Cl  1px        0.002564  0.000380 -0.116855  0.066506 -0.083537  0.106962
  3Cl  1py        0.042276  0.007283  0.083981  0.093313 -0.154338 -0.056848
  3Cl  2pz        0.247842 -0.271199 -0.274178  0.035566 -0.013209 -0.034593
  3Cl  2px        0.001354  0.002808 -0.204739  0.115937 -0.146347  0.177296
  3Cl  2py        0.073941  0.011479  0.146886  0.162404 -0.270367 -0.094225
  3Cl  3pz        0.314530 -0.355639 -0.343964  0.044549 -0.016600 -0.093633
  3Cl  3px        0.017831  0.000721 -0.268850  0.145681 -0.183769  0.492955
  3Cl  3py        0.090128  0.016638  0.190531  0.201672 -0.339549 -0.262000
  3Cl  1dz2       0.007506  0.005620 -0.004467  0.000817 -0.000242 -0.037295
  3Cl  1dxz      -0.012269  0.004328 -0.002765  0.002766 -0.001654 -0.023127
  3Cl  1dyz       0.005733 -0.002625  0.001858  0.004218 -0.002776  0.012036
  3Cl  1dx2y2     0.001660 -0.002154  0.006881  0.001142 -0.002218  0.041644
  3Cl  1dxy      -0.008125  0.002859 -0.009913  0.001901 -0.001284 -0.061575
  4H   1s        -0.000112  0.240871  0.000340  0.000167 -0.000100 -0.052700
  4H   2s        -0.000145  0.095542  0.000051  0.000005 -0.000042 -0.381177
  4H   1pz       -0.000173 -0.008633  0.000031  0.000053  0.000004 -0.004099
  4H   1px        0.004134  0.000004 -0.001217  0.000822  0.000005 -0.000010
  4H   1py       -0.003796  0.000413  0.000815  0.001215  0.000004  0.000223
                     30        31        32        33        34        35   
                  -0.03359  -0.03355   0.03032   0.32715   0.33098   0.33127
                   0.00000   0.00000   0.00000   0.00000   0.00000   0.00000
                  --------  --------  --------  --------  --------  --------
  0C   1s        -0.000209 -0.000086 -0.062792  0.050537 -0.000289  0.000046
  0C   2s         0.000673  0.000166  0.167919 -0.476052  0.002340 -0.000594
  0C   3s        -0.000525  0.000535  1.041601  0.489786 -0.005388 -0.000798
  0C   1pz       -0.029900 -0.001858  0.407443  0.229441  0.035202  0.000403
  0C   1px       -0.036924  0.600864  0.000046  0.002108  0.006028 -0.726705
  0C   1py       -0.599748 -0.036913 -0.020890 -0.010245  0.726661  0.005962
  0C   2pz       -0.046812 -0.002939  1.042731 -0.033988 -0.073398  0.001476
  0C   2px       -0.056809  0.922004 -0.000322 -0.004974 -0.012859  1.538153
  0C   2py       -0.921957 -0.056573 -0.050668  0.000453 -1.539098 -0.012624
  0C   1dz2      -0.001630 -0.000071 -0.027652  0.025910 -0.004271 -0.000098
  0C   1dxz      -0.001425  0.021546  0.000023 -0.000151 -0.000709  0.052036
  0C   1dyz      -0.019291 -0.001086  0.002255 -0.002243 -0.045376 -0.000090
  0C   1dx2y2    -0.023289 -0.003391 -0.000033 -0.000140 -0.067838 -0.006234
  0C   1dxy      -0.003244  0.021346  0.000004 -0.000179 -0.006166  0.063286
  1Cl  1s         0.020062  0.001809  0.006862 -0.040537  0.016051  0.000473
  1Cl  2s        -0.132482 -0.011950 -0.046912  0.295410 -0.118849 -0.003519
  1Cl  3s         0.182209  0.016520  0.104963 -1.064316  0.396923  0.011471
  1Cl  4s         0.517984  0.046398  0.046536  0.902426  0.300679  0.014321
  1Cl  1pz        0.066149  0.005882 -0.009134  0.026774  0.018776  0.000623
  1Cl  1px        0.008071 -0.048875  0.000664 -0.000319  0.001054 -0.049139
  1Cl  1py       -0.130169 -0.013136 -0.022744  0.013234  0.025670 -0.000441
  1Cl  2pz        0.113847  0.010127 -0.008421  0.063736  0.047303  0.001630
  1Cl  2px        0.013370 -0.079854  0.001142 -0.001253  0.002537 -0.100442
  1Cl  2py       -0.219516 -0.022090 -0.039505  0.046211  0.038753 -0.001363
  1Cl  3pz        0.288263  0.025594 -0.093377  0.013715  0.165333  0.005507
  1Cl  3px        0.039200 -0.237865  0.003839  0.001030  0.016654 -0.252868
  1Cl  3py       -0.628354 -0.063356 -0.128777 -0.006081 -0.263783 -0.017357
  1Cl  1dz2       0.019844  0.001884  0.005492 -0.001751 -0.146740 -0.005128
  1Cl  1dxz      -0.005198  0.036622  0.001453 -0.002624 -0.001237  0.088390
  1Cl  1dyz       0.067041  0.007030 -0.050198  0.087657 -0.072414 -0.000454
  1Cl  1dx2y2     0.060562  0.008806  0.020694  0.089848 -0.251308  0.000161
  1Cl  1dxy       0.008722 -0.058880  0.001258  0.005507 -0.008304 -0.163145
  2Cl  1s        -0.011639  0.016487  0.006808 -0.040657 -0.008476  0.013499
  2Cl  2s         0.076860 -0.108881 -0.046535  0.296306  0.062775 -0.099976
  2Cl  3s        -0.105756  0.149983  0.103940 -1.067639 -0.209828  0.334065
  2Cl  4s        -0.300230  0.424589  0.047154  0.903143 -0.159381  0.255221
  2Cl  1pz       -0.042039  0.063171 -0.007555  0.025655 -0.007486  0.015486
  2Cl  1px       -0.083932  0.073868  0.019470 -0.012233 -0.009755 -0.032877
  2Cl  1py       -0.002211  0.076000  0.012426 -0.008794  0.043269  0.009703
  2Cl  2pz       -0.072293  0.108323 -0.005748  0.059966 -0.020686  0.040194
  2Cl  2px       -0.140380  0.125290  0.033432 -0.041749 -0.025907 -0.057638
  2Cl  2py       -0.005440  0.126817  0.020997 -0.028664  0.084968  0.025328
  2Cl  3pz       -0.184949  0.279582 -0.083698  0.013413 -0.089156  0.161139
  2Cl  3px       -0.406706  0.356700  0.113024  0.004086 -0.227701  0.113107
  2Cl  3py       -0.010504  0.369311  0.073872  0.001634  0.116708  0.220400
  2Cl  1dz2      -0.008731  0.007177  0.011715 -0.012621  0.065888 -0.118258
  2Cl  1dxz       0.052626 -0.040703  0.040465 -0.082101 -0.009034  0.103482
  2Cl  1dyz      -0.008066 -0.051462  0.025102 -0.045231 -0.104585  0.000975
  2Cl  1dx2y2     0.056774  0.005889 -0.008988 -0.041187  0.055738  0.169356
  2Cl  1dxy       0.006192 -0.055309 -0.022525 -0.073453 -0.177365  0.144213
  3Cl  1s        -0.008497 -0.018320  0.006798 -0.040609 -0.007456 -0.014366
  3Cl  2s         0.056114  0.120985 -0.046470  0.295952  0.055221  0.106375
  3Cl  3s        -0.077251 -0.166636  0.103759 -1.066667 -0.184643 -0.356217
  3Cl  4s        -0.219025 -0.471839  0.047270  0.906135 -0.139874 -0.258307
  3Cl  1pz       -0.029810 -0.069375 -0.007645  0.025836 -0.006292 -0.016055
  3Cl  1px        0.068664  0.092194 -0.020085  0.012779  0.009644 -0.031542
  3Cl  1py        0.015393 -0.070052  0.011275 -0.008046  0.044479 -0.008301
  3Cl  2pz       -0.051341 -0.118996 -0.005911  0.060472 -0.017592 -0.041636
  3Cl  2px        0.114645  0.155936 -0.034481  0.043363  0.025144 -0.054029
  3Cl  2py        0.023950 -0.117077  0.019017 -0.026168  0.088143 -0.022158
  3Cl  3pz       -0.130654 -0.306774 -0.084117  0.014454 -0.076205 -0.167027
  3Cl  3px        0.332794  0.445421 -0.116723 -0.005232  0.210973  0.141073
  3Cl  3py        0.075103 -0.340589  0.067249  0.002880  0.145074 -0.203001
  3Cl  1dz2      -0.007559 -0.008959  0.011466 -0.012823  0.057023  0.123545
  3Cl  1dxz      -0.043190 -0.052129 -0.041966  0.083879  0.007172  0.102868
  3Cl  1dyz      -0.019645  0.046088  0.022838 -0.040220 -0.103365 -0.002213
  3Cl  1dx2y2     0.056247  0.010908 -0.011348 -0.048546  0.048649 -0.182275
  3Cl  1dxy       0.010365 -0.054833  0.021238  0.067629  0.173228  0.137527
  4H   1s         0.000160 -0.000014 -0.212722 -0.088109 -0.001630 -0.001469
  4H   2s         0.002523  0.000349 -1.977868 -0.372939  0.002418 -0.000371
  4H   1pz       -0.000974 -0.000049 -0.014430 -0.031636 -0.000785 -0.000126
  4H   1px       -0.001215  0.019812  0.000011 -0.000021 -0.000120  0.014475
  4H   1py       -0.019749 -0.001221  0.000654  0.001507 -0.014449 -0.000121
                     36        37        38        39        40        41   
                   0.33943   0.46457   0.46466   0.51910   0.57422   0.57424
                   0.00000   0.00000   0.00000   0.00000   0.00000   0.00000
                  --------  --------  --------  --------  --------  --------
  0C   1s         0.064961  0.000052  0.000283 -0.134430  0.000152  0.000055
  0C   2s        -0.458840  0.000063 -0.001282  0.875838 -0.000828 -0.000342
  0C   3s         1.295532 -0.000420  0.002856 -2.227212  0.001930  0.000853
  0C   1pz        0.316167 -0.002398 -0.012902  0.812432  0.002435  0.000912
  0C   1px       -0.001118  0.217981 -0.033666 -0.000081  0.023074 -0.061458
  0C   1py       -0.014102 -0.033665 -0.217350 -0.040208  0.061276  0.023019
  0C   2pz       -1.310689  0.009553  0.059217 -1.556393 -0.011498 -0.004292
  0C   2px        0.002676 -1.137572  0.176035 -0.000138 -0.097092  0.258847
  0C   2py        0.060483  0.175859  1.135087  0.078349 -0.258540 -0.097111
  0C   1dz2       0.104810  0.000307  0.001526 -0.097924 -0.012404 -0.004610
  0C   1dxz       0.000021 -0.014387  0.002228  0.000040 -0.051096  0.138177
  0C   1dyz      -0.008903  0.002141  0.013910  0.008203 -0.150586 -0.057142
  0C   1dx2y2    -0.000342  0.000862  0.003692  0.000470  0.126834  0.061095
  0C   1dxy       0.000105 -0.002590  0.000653  0.000003  0.066402 -0.140737
  1Cl  1s         0.011774  0.010187  0.055182  0.003023  0.005621  0.002291
  1Cl  2s        -0.085877 -0.075549 -0.409236 -0.022491 -0.040912 -0.016675
  1Cl  3s         0.365578  0.306804  1.662501  0.082763  0.129335  0.052689
  1Cl  4s        -0.783437 -0.403414 -2.188285 -0.043644  0.006559  0.002812
  1Cl  1pz        0.048624 -0.004469 -0.024025 -0.019049  0.026837  0.011064
  1Cl  1px       -0.000263 -0.042463  0.005898  0.000150 -0.025202  0.058163
  1Cl  1py        0.004723  0.011695  0.070141 -0.005345  0.044710  0.020224
  1Cl  2pz        0.101973 -0.010489 -0.056171 -0.065975  0.069644  0.028756
  1Cl  2px       -0.000351 -0.138379  0.020549  0.000575 -0.075673  0.174223
  1Cl  2py        0.003610  0.029408  0.181358 -0.020246  0.140601  0.063314
  1Cl  3pz        0.137585 -0.026098 -0.143358  0.182190  0.017838  0.007027
  1Cl  3px       -0.009768  0.238531 -0.051883 -0.001102  0.063215 -0.140991
  1Cl  3py        0.319384  0.056425  0.268839  0.033413 -0.177407 -0.077258
  1Cl  1dz2      -0.042785 -0.000937 -0.001891  0.059589 -0.319141 -0.129921
  1Cl  1dxz      -0.006212 -0.181662  0.036010 -0.002401 -0.027424  0.036489
  1Cl  1dyz       0.226725 -0.020909 -0.084122  0.071688  0.405770  0.167769
  1Cl  1dx2y2    -0.014884  0.000028  0.004875 -0.089240 -0.055595 -0.051149
  1Cl  1dxy      -0.001484  0.020582 -0.003364 -0.005173 -0.177821  0.422665
  2Cl  1s         0.011786  0.042683 -0.036368  0.002830 -0.004798  0.003715
  2Cl  2s        -0.085970 -0.316549  0.269725 -0.021072  0.034923 -0.027038
  2Cl  3s         0.366145  1.286043 -1.096101  0.077146 -0.110483  0.085538
  2Cl  4s        -0.785465 -1.693209  1.443871 -0.036511 -0.005562  0.004301
  2Cl  1pz        0.047950 -0.021507  0.020777 -0.018510 -0.021605  0.013465
  2Cl  1px       -0.006055 -0.059855  0.021421  0.005798  0.054361 -0.000068
  2Cl  1py       -0.005958 -0.003208  0.050583  0.004506 -0.011042 -0.059513
  2Cl  2pz        0.100913 -0.050303  0.050840 -0.064041 -0.055168  0.032922
  2Cl  2px       -0.007310 -0.164787  0.043809  0.021329  0.167303 -0.003620
  2Cl  2py       -0.009206  0.007459  0.149764  0.016415 -0.030815 -0.180054
  2Cl  3pz        0.113222 -0.132211  0.098943  0.179464 -0.022589  0.025449
  2Cl  3px       -0.278429 -0.090111  0.245719 -0.035967 -0.179125  0.036294
  2Cl  3py       -0.176526 -0.235412 -0.071366 -0.031473  0.001722  0.164441
  2Cl  1dz2      -0.071185  0.015627  0.004084  0.050124  0.313034 -0.244004
  2Cl  1dxz      -0.187141 -0.007630 -0.120998 -0.057510  0.281788 -0.191549
  2Cl  1dyz      -0.111466  0.136062  0.091212 -0.043724  0.144525 -0.110110
  2Cl  1dx2y2     0.006243 -0.003558 -0.000508  0.039442 -0.277945 -0.306620
  2Cl  1dxy       0.031710 -0.002851  0.014991  0.086656  0.049024  0.223620
  3Cl  1s         0.011766 -0.052824 -0.018750  0.002794 -0.000836 -0.006006
  3Cl  2s        -0.085821  0.391769  0.139060 -0.020802  0.006088  0.043714
  3Cl  3s         0.365718 -1.592003 -0.565210  0.076063 -0.019310 -0.138233
  3Cl  4s        -0.786745  2.097267  0.744886 -0.035023 -0.000677 -0.007277
  3Cl  1pz        0.047888  0.027385  0.011776 -0.018528 -0.006151 -0.024868
  3Cl  1px        0.006151 -0.064778 -0.001330 -0.006055 -0.035929 -0.039914
  3Cl  1py       -0.005630  0.017277  0.046141  0.004175 -0.051700  0.032561
  3Cl  2pz        0.100712  0.064846  0.029709 -0.064122 -0.016789 -0.062532
  3Cl  2px        0.007363 -0.172218  0.009593 -0.022230 -0.108454 -0.125334
  3Cl  2py       -0.008836  0.036382  0.143445  0.015188 -0.154555  0.100062
  3Cl  3pz        0.113773  0.158076  0.044582  0.179754  0.002023 -0.033489
  3Cl  3px        0.288108 -0.183679 -0.188595  0.037064  0.095849  0.157870
  3Cl  3py       -0.160935  0.184742 -0.161725 -0.029226  0.122087 -0.107426
  3Cl  1dz2      -0.069774 -0.013008  0.010034  0.050249  0.052726  0.391313
  3Cl  1dxz       0.193916  0.041445  0.107766  0.059747 -0.070416 -0.345926
  3Cl  1dyz      -0.100660 -0.092220  0.140067 -0.040751  0.021638  0.160775
  3Cl  1dx2y2     0.008631  0.003950 -0.000511  0.048860 -0.387946  0.011539
  3Cl  1dxy      -0.030128 -0.007349 -0.013569 -0.081465 -0.237297  0.127105
  4H   1s         0.824974  0.000991  0.002281 -0.631346  0.000606  0.000221
  4H   2s        -0.345471 -0.001437 -0.005132  2.283352 -0.001916 -0.000714
  4H   1pz        0.006347  0.000129  0.000183 -0.164723 -0.003607 -0.001334
  4H   1px        0.000004  0.006289 -0.000984  0.000012 -0.028877  0.077043
  4H   1py       -0.000290 -0.000981 -0.006314  0.008131 -0.076988 -0.028859
                     42        43        44        45        46        47   
                   0.63823   0.63896   0.63907   0.64904   0.65771   0.65780
                   0.00000   0.00000   0.00000   0.00000   0.00000   0.00000
                  --------  --------  --------  --------  --------  --------
  0C   1s        -0.000032  0.000527 -0.000017  0.119511 -0.000001  0.000858
  0C   2s         0.000187 -0.005050  0.000323 -1.043604  0.000449 -0.007490
  0C   3s        -0.000451  0.015016 -0.001083  3.167435 -0.002315  0.022228
  0C   1pz        0.000192  0.008378  0.001746 -0.025806 -0.002840 -0.000920
  0C   1px        0.016597 -0.033928  0.182416  0.000024 -0.023481  0.064311
  0C   1py        0.005738  0.184422  0.033621  0.001125 -0.064078 -0.022872
  0C   2pz       -0.000639 -0.023316 -0.004568 -0.025978  0.005190  0.001040
  0C   2px       -0.043931  0.090925 -0.489032 -0.000112  0.044266 -0.119980
  0C   2py       -0.015398 -0.493902 -0.090172  0.002111  0.119141  0.042440
  0C   1dz2       0.000218  0.006727  0.001263 -0.007633 -0.000263 -0.000158
  0C   1dxz       0.007675 -0.015132  0.083084  0.000092 -0.002164  0.005046
  0C   1dyz       0.002336  0.078040  0.014470  0.000523 -0.001875 -0.000440
  0C   1dx2y2     0.001418  0.057465  0.005787 -0.000150 -0.030811 -0.014074
  0C   1dxy       0.004407 -0.004422  0.048870 -0.000131 -0.014096  0.030522
  1Cl  1s         0.000197  0.006803  0.001034 -0.000452 -0.000374 -0.000139
  1Cl  2s        -0.001398 -0.048291 -0.007333  0.000237  0.001899  0.000672
  1Cl  3s         0.003377  0.117266  0.017585  0.143976  0.016038  0.007561
  1Cl  4s         0.004653  0.157337  0.025161 -0.793534 -0.088276 -0.040512
  1Cl  1pz        0.000990  0.035396  0.005611  0.030563  0.031842  0.012681
  1Cl  1px       -0.078167 -0.001059 -0.005371  0.000503 -0.024896  0.066555
  1Cl  1py        0.001608  0.133810  0.020271 -0.036818 -0.024949 -0.007693
  1Cl  2pz        0.003027  0.108783  0.017264  0.102568  0.103176  0.041108
  1Cl  2px       -0.253705 -0.003423 -0.018428  0.002250 -0.078523  0.210510
  1Cl  2py        0.005377  0.439804  0.066634 -0.140047 -0.085251 -0.026972
  1Cl  3pz       -0.000472 -0.021275 -0.003546 -0.186933 -0.103727 -0.041848
  1Cl  3px        0.231385 -0.001302  0.069945 -0.013797  0.056560 -0.157258
  1Cl  3py       -0.008824 -0.534716 -0.080157  0.538325  0.120344  0.045434
  1Cl  1dz2       0.006552  0.235760  0.033162  0.417243 -0.543282 -0.208363
  1Cl  1dxz      -0.166702  0.089371 -0.523318 -0.002026 -0.000030  0.026533
  1Cl  1dyz      -0.008788 -0.177935 -0.043891  0.019509 -0.329734 -0.127662
  1Cl  1dx2y2    -0.021653  0.251305  0.056048 -0.299595  0.354229  0.140675
  1Cl  1dxy       0.502601  0.042003 -0.267594 -0.016608  0.050268 -0.066879
  2Cl  1s        -0.000645 -0.002490 -0.006389 -0.000421  0.000342 -0.000279
  2Cl  2s         0.004587  0.017654  0.045352  0.000028 -0.001783  0.001456
  2Cl  3s        -0.011363 -0.041939 -0.109900  0.144384 -0.013185  0.011326
  2Cl  4s        -0.013918 -0.062572 -0.148939 -0.793038  0.075266 -0.065248
  2Cl  1pz       -0.005476 -0.009935 -0.023242  0.032999 -0.030520  0.020754
  2Cl  1px        0.050838  0.047440  0.101817  0.029649  0.007155  0.042634
  2Cl  1py       -0.058357  0.018062  0.077827  0.016817 -0.046637 -0.040356
  2Cl  2pz       -0.017183 -0.029853 -0.069334  0.111968 -0.099036  0.067686
  2Cl  2px        0.165345  0.156216  0.334487  0.113517  0.018101  0.138551
  2Cl  2py       -0.189116  0.058774  0.255162  0.064988 -0.150152 -0.125397
  2Cl  3pz        0.007403 -0.003746 -0.019841 -0.225440  0.100415 -0.072506
  2Cl  3px       -0.157861 -0.211181 -0.399450 -0.448443  0.026951 -0.137955
  2Cl  3py        0.161720 -0.035755 -0.308717 -0.266118  0.135572  0.072931
  2Cl  1dz2      -0.033505 -0.126525 -0.222023  0.414761  0.411669 -0.332337
  2Cl  1dxz       0.046321  0.220094 -0.214738 -0.022938 -0.228998  0.201156
  2Cl  1dyz      -0.139538 -0.427442  0.110560 -0.061531 -0.219482  0.139985
  2Cl  1dx2y2     0.470679 -0.193220  0.152166  0.134943  0.174068 -0.048715
  2Cl  1dxy      -0.214817  0.184185  0.212975  0.271829  0.266987 -0.260532
  3Cl  1s         0.000451 -0.004319  0.005349 -0.000424  0.000047  0.000426
  3Cl  2s        -0.003211  0.030637 -0.037969  0.000036 -0.000206 -0.002240
  3Cl  3s         0.008019 -0.073347  0.091964  0.144490 -0.003013 -0.015381
  3Cl  4s         0.009568 -0.105415  0.124779 -0.793220  0.014449  0.088100
  3Cl  1pz        0.004875 -0.016988  0.019412  0.033157 -0.008781 -0.035656
  3Cl  1px        0.043912 -0.080448  0.086221 -0.030900 -0.030795  0.026149
  3Cl  1py        0.062677  0.032591 -0.064710  0.014675 -0.063428 -0.000003
  3Cl  2pz        0.015409 -0.051008  0.057904  0.112423 -0.028243 -0.115850
  3Cl  2px        0.142718 -0.264541  0.283211 -0.118179 -0.096490  0.088406
  3Cl  2py        0.203178  0.106540 -0.212253  0.057080 -0.201023 -0.002949
  3Cl  3pz       -0.008159 -0.008061  0.017137 -0.224627  0.026035  0.118529
  3Cl  3px       -0.133388  0.335917 -0.333052  0.464413  0.064102 -0.115372
  3Cl  3py       -0.174251 -0.098292  0.267579 -0.239000  0.153550  0.027430
  3Cl  1dz2       0.024729 -0.190215  0.172447  0.409590  0.077595  0.528985
  3Cl  1dxz       0.027330 -0.125153 -0.258384  0.020764  0.040498  0.315985
  3Cl  1dyz       0.117907 -0.389771 -0.249059 -0.060163 -0.058240 -0.233804
  3Cl  1dx2y2    -0.451274 -0.085396 -0.213598  0.162681  0.098211  0.196188
  3Cl  1dxy      -0.280154 -0.236703  0.126697 -0.250015 -0.009028 -0.354876
  4H   1s         0.000075 -0.000493  0.000082 -0.108683  0.000102 -0.001024
  4H   2s        -0.000010 -0.004860  0.000334 -0.855639  0.001014 -0.005229
  4H   1pz        0.000028  0.000988  0.000164  0.025669 -0.001178 -0.000277
  4H   1px        0.001724 -0.003293  0.017868 -0.000078 -0.008526  0.023846
  4H   1py        0.000471  0.017671  0.003132 -0.001349 -0.023621 -0.008405
                     48        49        50        51        52        53   
                   0.66365   0.68777   0.68783   0.69534   0.70272   0.71821
                   0.00000   0.00000   0.00000   0.00000   0.00000   0.00000
                  --------  --------  --------  --------  --------  --------
  0C   1s         0.000020  0.001931  0.000495 -0.042389 -0.180556 -0.000201
  0C   2s        -0.000409 -0.022145 -0.006551  0.877448  1.534107  0.001961
  0C   3s         0.000826  0.061989  0.017821 -2.317876 -4.333779 -0.005611
  0C   1pz        0.000041 -0.017653 -0.004223  0.045622 -0.163758 -0.002790
  0C   1px        0.001600 -0.090844  0.376285  0.000474 -0.000001  0.347780
  0C   1py        0.000248 -0.376496 -0.090365 -0.007034  0.005319 -0.054562
  0C   2pz        0.000042  0.030524  0.007546 -0.226300  0.402977  0.007107
  0C   2px       -0.004506  0.156926 -0.649002 -0.000440 -0.000098 -0.874385
  0C   2py       -0.000742  0.650369  0.155860  0.019282 -0.016112  0.137264
  0C   1dz2       0.000021 -0.008811 -0.001910 -0.052905  0.050893  0.000268
  0C   1dxz       0.000642 -0.027599  0.112805  0.000237 -0.000019 -0.006770
  0C   1dyz       0.000130 -0.103427 -0.024471  0.003326 -0.005357  0.002864
  0C   1dx2y2    -0.000063 -0.097962 -0.032185 -0.001220 -0.000945 -0.021885
  0C   1dxy       0.000195 -0.029666  0.087133 -0.000015 -0.000032  0.089388
  1Cl  1s         0.000006 -0.000358 -0.000089 -0.007603 -0.002608  0.001391
  1Cl  2s        -0.000049  0.001237  0.000276  0.059367  0.023175 -0.010838
  1Cl  3s         0.000226  0.056959  0.015656 -0.342639 -0.289131  0.059801
  1Cl  4s        -0.000141 -0.392243 -0.106363  0.786216  1.249556 -0.142646
  1Cl  1pz       -0.000101  0.106240  0.028638  0.080863  0.112339 -0.018943
  1Cl  1px       -0.023781  0.018685 -0.057918  0.004548 -0.002736  0.135460
  1Cl  1py       -0.000568 -0.104574 -0.029860 -0.173229  0.079837  0.000956
  1Cl  2pz       -0.000328  0.344920  0.092976  0.252014  0.352182 -0.059331
  1Cl  2px       -0.076164  0.060722 -0.187540  0.014017 -0.009551  0.425476
  1Cl  2py       -0.001837 -0.345435 -0.098550 -0.534994  0.283898 -0.000428
  1Cl  3pz        0.000324 -0.378327 -0.101964 -0.108005 -0.166210  0.027664
  1Cl  3px        0.065574 -0.076281  0.228544 -0.003548  0.025477 -0.237072
  1Cl  3py        0.001589  0.487008  0.138279  0.156269 -0.856954  0.054398
  1Cl  1dz2      -0.002528 -0.022835 -0.005854 -0.113131  0.266260 -0.019054
  1Cl  1dxz       0.562362 -0.038855  0.178373  0.004944  0.000452  0.436414
  1Cl  1dyz       0.014276 -0.324522 -0.082096 -0.146621 -0.009613  0.035873
  1Cl  1dx2y2    -0.003399 -0.362635 -0.116574 -0.129133  0.117541 -0.036182
  1Cl  1dxy       0.101560 -0.102473  0.296970 -0.006179  0.006823 -0.285565
  2Cl  1s         0.000014  0.000414 -0.000286 -0.007615 -0.002570  0.005785
  2Cl  2s        -0.000115 -0.002144  0.001112  0.059480  0.022912 -0.045092
  2Cl  3s         0.000907 -0.031974  0.039357 -0.344232 -0.288750  0.249509
  2Cl  4s        -0.003216  0.255773 -0.277658  0.793929  1.251974 -0.596634
  2Cl  1pz       -0.001239 -0.085368  0.086003  0.092290  0.103907 -0.081248
  2Cl  1px        0.012870 -0.086310  0.039308  0.142259 -0.073969  0.060461
  2Cl  1py       -0.019972  0.001601  0.070909  0.083948 -0.050035 -0.063899
  2Cl  2pz       -0.003907 -0.277023  0.279379  0.287075  0.323075 -0.253368
  2Cl  2px        0.041267 -0.283013  0.131294  0.438872 -0.260687  0.202078
  2Cl  2py       -0.063912  0.003087  0.232070  0.258965 -0.174460 -0.193192
  2Cl  3pz        0.002549  0.301177 -0.310548 -0.114230 -0.095539  0.100999
  2Cl  3px       -0.036261  0.373936 -0.198748 -0.120186  0.741257 -0.304030
  2Cl  3py        0.053746  0.015601 -0.308470 -0.071334  0.459949 -0.009927
  2Cl  1dz2       0.042498 -0.024407  0.008014 -0.093384  0.264385 -0.117709
  2Cl  1dxz      -0.299456 -0.160062  0.291413  0.139533 -0.025880  0.094533
  2Cl  1dyz       0.467017 -0.217503  0.033236  0.085347 -0.033271 -0.300612
  2Cl  1dx2y2     0.141878 -0.330219 -0.087824  0.052859 -0.058456  0.238366
  2Cl  1dxy      -0.039264 -0.121307  0.318523  0.097824 -0.105275  0.113126
  3Cl  1s        -0.000005  0.000207  0.000484 -0.007597 -0.002547 -0.007192
  3Cl  2s         0.000051 -0.001245 -0.002254  0.059344  0.022742  0.056075
  3Cl  3s        -0.000606 -0.007776 -0.049141 -0.343684 -0.288073 -0.310817
  3Cl  4s         0.002370  0.079992  0.367137  0.793553  1.251196  0.744787
  3Cl  1pz        0.000761 -0.030075 -0.117655  0.091431  0.104395  0.098427
  3Cl  1px        0.011378  0.052276  0.081758 -0.147005  0.076405  0.039097
  3Cl  1py        0.019940  0.040387 -0.055951  0.075386 -0.046039  0.026404
  3Cl  2pz        0.002393 -0.097440 -0.381990  0.284383  0.324729  0.306915
  3Cl  2px        0.036503  0.170328  0.270115 -0.453517  0.269295  0.138553
  3Cl  2py        0.063825  0.130289 -0.184042  0.232528 -0.160279  0.074502
  3Cl  3pz       -0.001486  0.102236  0.420137 -0.112777 -0.098771 -0.121565
  3Cl  3px       -0.031977 -0.213303 -0.377843  0.124066 -0.766110 -0.325202
  3Cl  3py       -0.053834 -0.155490  0.253188 -0.063566  0.417573  0.090510
  3Cl  1dz2      -0.042080 -0.017686 -0.017456 -0.094290  0.265198  0.130426
  3Cl  1dxz      -0.270720 -0.001368  0.340284 -0.142478  0.025839 -0.006681
  3Cl  1dyz      -0.485328 -0.172898 -0.118127  0.076036 -0.032214  0.181734
  3Cl  1dx2y2    -0.133523 -0.320276 -0.130408  0.064480 -0.069502 -0.214486
[...]
 1 Cl pz              0.2      16.8       3.9      12.8       0.1      31.2
 1 Cl px              9.9       0.0      25.6       7.5       8.3       0.0
 1 Cl py              0.0       1.6       0.3       1.9       0.0       0.7
 1 Cl dz2             0.0       3.0       1.2       3.7       0.0       1.7
 1 Cl dxz            23.2       0.0       4.2       1.3       1.2       0.0
 1 Cl dyz             0.0       7.3       0.0       0.2       0.0       7.8
 1 Cl dx2y2           0.6       0.0       0.5       1.3       0.0       0.0
 1 Cl dxy             3.2       0.0       0.6       0.3       6.8       0.0
 2 Cl s               1.6       0.6       0.0       0.0       0.2       0.1
 2 Cl pz              3.9      15.9      15.7       0.1      21.9       8.6
 2 Cl px              0.9       1.6       1.9       9.3       2.6       0.6
 2 Cl py              0.3       0.9       1.3      23.8       0.4       6.3
 2 Cl dz2             1.2       1.8       5.1       0.0       2.1       0.7
 2 Cl dxz             0.1       5.8       0.1       1.5       2.5       3.1
 2 Cl dyz             3.0       2.6       0.0       3.6       2.9       0.1
 2 Cl dx2y2           3.2       0.0       0.4       1.1       1.3       3.6
 2 Cl dxy             6.8       0.0       1.3       0.2       0.4       1.0
 3 Cl s               1.0       0.6       0.0       0.0       0.3       0.1
 3 Cl pz              2.5      15.9       3.4      12.5      24.8       5.6
 3 Cl px              1.9       1.7       2.5       7.1       2.2       0.6
 3 Cl py              2.7       0.8      23.5       3.1       0.2       6.9
 3 Cl dz2             1.0       1.9       1.7       3.4       2.3       0.4
 3 Cl dxz             1.2       6.2       0.6       0.8       3.5       2.3
 3 Cl dyz            10.7       2.2       2.8       1.1       2.4       0.3
 3 Cl dx2y2           4.5       0.0       1.5       0.0       0.7       3.6
 3 Cl dxy             2.0       0.0       0.0       1.4       0.3       1.7
 4 H  s               0.0       1.2       0.0       0.0       0.0       0.0
 4 H  pz              0.0       0.1       0.0       0.0       0.0       0.0
 4 H  px              2.9       0.0       1.2       0.4       8.2       0.0
 4 H  py              0.2       0.0       0.4       1.2       0.0       8.2

                     60        61        62        63        64        65   
                   1.29791   1.49207   1.55480   1.55480   1.62681   1.80974
                   0.00000   0.00000   0.00000   0.00000   0.00000   0.00000
                  --------  --------  --------  --------  --------  --------
 0 C  s               0.0       0.3       0.0       0.0      16.9       0.0
 0 C  pz              0.0      24.3       0.0       0.0       1.1       0.0
 0 C  px              0.0       0.0       4.2       1.0       0.0       0.1
 0 C  py              0.0       0.1       1.0       4.1       0.0       9.2
 0 C  dz2             0.0       3.6       0.0       0.0       2.2       0.1
 0 C  dxz             0.0       0.0       2.0       0.5       0.0       0.2
 0 C  dyz             0.0       0.0       0.4       1.6       0.0      18.6
 0 C  dx2y2           0.0       0.0       1.0       2.8       0.0      12.0
 0 C  dxy             0.0       0.0       2.4       0.9       0.0       0.7
 1 Cl s               0.0       0.3       1.7       6.3       4.5       1.7
 1 Cl pz              0.0       6.1       0.2       0.7       1.9       0.0
 1 Cl px             28.6       0.0       2.0       0.3       0.0       0.1
 1 Cl py              0.0       0.3       7.6      29.2       7.8       0.7
 1 Cl dz2             0.0       2.3       0.5       2.0       0.6       0.7
 1 Cl dxz             0.0       0.0       0.5       0.2       0.0       0.0
 1 Cl dyz             0.0      12.2       0.4       1.4       1.0       0.0
 1 Cl dx2y2           0.0       1.8       1.0       4.0       8.7       0.5
 1 Cl dxy             4.7       0.0       0.6       0.1       0.0       0.2
 2 Cl s               0.0       0.3       2.3       5.6       4.5       0.7
 2 Cl pz              0.0       5.9       0.5       1.5       2.5       0.0
 2 Cl px              7.9       0.3      11.7      15.1       5.4       0.9
 2 Cl py             20.7       0.2       0.4      10.8       1.8       0.4
 2 Cl dz2             0.0       3.7       0.5       1.4       0.4       0.4
 2 Cl dxz             0.0       7.4       0.2       2.1       1.3       0.3
 2 Cl dyz             0.0       2.5       1.1       0.2       0.4       0.8
 2 Cl dx2y2           3.8       0.4       1.4       0.2       1.8       4.0
 2 Cl dxy             0.9       2.2       0.5       3.1       6.4       0.3
 3 Cl s               0.0       0.3       7.9       0.0       4.5       0.2
 3 Cl pz              0.1       5.9       1.9       0.0       2.4       0.0
 3 Cl px              6.5       0.3      28.3       0.2       5.8       0.7
 3 Cl py             22.1       0.2       7.5       2.1       1.5       0.9
 3 Cl dz2             0.0       3.7       1.9       0.0       0.4       0.2
 3 Cl dxz             0.0       8.0       2.1       0.2       1.4       0.3
 3 Cl dyz             0.0       2.1       0.7       0.4       0.3       1.3
 3 Cl dx2y2           3.3       0.6       1.6       0.4       2.6       4.6
 3 Cl dxy             1.4       2.0       2.9       0.3       5.6       1.3
 4 H  s               0.0       2.7       0.0       0.0       3.1       0.0
 4 H  pz              0.0       0.2       0.0       0.0       2.9       0.1
 4 H  px              0.0       0.0       1.0       0.2       0.0       0.6
 4 H  py              0.0       0.0       0.2       1.0       0.0      37.1

                     66        67        68        69        70        71   
                   1.80975   2.15808   2.32419   2.32419   2.44218   2.44218
                   0.00000   0.00000   0.00000   0.00000   0.00000   0.00000
                  --------  --------  --------  --------  --------  --------
 0 C  s               0.0       5.9       0.0       0.0       0.0       0.0
 0 C  pz              0.0       5.3       0.0       0.0       0.0       0.0
 0 C  px              9.2       0.0       5.1       0.1       0.0       0.4
 0 C  py              0.1       0.0       0.1       5.1       0.4       0.0
 0 C  dz2             0.0      41.0       0.0       0.1       0.4       0.0
 0 C  dxz            15.8       0.0       7.3       0.2       0.1      58.1
 0 C  dyz             0.3       0.3       0.4      11.2      51.5       0.1
 0 C  dx2y2           0.6       0.0       3.0      43.0      22.1       0.3
 0 C  dxy            15.0       0.0      47.0       3.1       0.3      15.9
 1 Cl s               0.0       0.5       0.1       2.2       1.3       0.0
 1 Cl pz              0.0       0.1       0.0       0.5       0.0       0.0
 1 Cl px              1.7       0.0       0.0       0.0       0.0       0.1
 1 Cl py              0.0       0.3       0.0       0.9       1.5       0.0
 1 Cl dz2             0.0       0.2       0.0       0.0       1.4       0.0
 1 Cl dxz             1.3       0.0       0.0       0.0       0.0       0.0
 1 Cl dyz             0.0       0.6       0.1       3.0       0.1       0.0
 1 Cl dx2y2           0.1       0.7       0.0       1.0       3.8       0.0
 1 Cl dxy             7.0       0.0       0.6       0.0       0.0       0.0
 2 Cl s               1.1       0.5       1.3       1.0       0.4       0.9
 2 Cl pz              0.0       0.1       0.3       0.3       0.0       0.0
 2 Cl px              0.0       0.2       0.4       0.3       0.3       0.8
 2 Cl py              1.1       0.1       0.1       0.1       0.2       0.2
 2 Cl dz2             0.4       0.1       0.0       0.0       0.4       0.9
 2 Cl dxz             0.1       0.6       1.4       1.1       0.1       0.3
 2 Cl dyz             0.6       0.2       0.4       0.4       0.1       0.0
 2 Cl dx2y2           1.4       0.1       0.7       0.0       0.1       0.7
 2 Cl dxy             1.7       0.4       0.1       0.6       1.0       1.9
 3 Cl s               1.5       0.5       2.0       0.2       0.2       1.0
 3 Cl pz              0.0       0.1       0.5       0.1       0.0       0.1
 3 Cl px              0.2       0.3       0.7       0.1       0.2       1.0
 3 Cl py              0.6       0.1       0.1       0.0       0.1       0.2
 3 Cl dz2             0.6       0.1       0.0       0.0       0.2       1.1
 3 Cl dxz             0.0       0.6       2.4       0.3       0.0       0.3
 3 Cl dyz             0.2       0.2       0.6       0.1       0.1       0.0
 3 Cl dx2y2           0.1       0.2       0.5       0.2       0.1       1.0
 3 Cl dxy             1.3       0.4       0.3       0.4       0.6       1.9
 4 H  s               0.0       1.4       0.0       0.0       0.0       0.0
 4 H  pz              0.0      38.7       0.0       0.1       0.0       0.0
 4 H  px             37.2       0.0      23.6       0.7       0.0      12.7
 4 H  py              0.6       0.1       0.7      23.5      12.7       0.0

                     72   
                   3.07631
                   0.00000
                  --------
 0 C  s               5.5
 0 C  pz             10.9
 0 C  dz2            34.0
 0 C  dyz             0.2
 1 Cl s               0.1
 1 Cl py              0.1
 2 Cl s               0.1
 3 Cl s               0.1
 4 H  s              15.2
 4 H  pz             32.9


                      *****************************
                      * MAYER POPULATION ANALYSIS *
                      *****************************

  NA   - Mulliken gross atomic population
  ZA   - Total nuclear charge
  QA   - Mulliken gross atomic charge
  VA   - Mayer's total valence
  BVA  - Mayer's bonded valence
  FA   - Mayer's free valence

  ATOM       NA         ZA         QA         VA         BVA        FA
  0 C      5.8057     6.0000     0.1943     3.8986     3.8986     0.0000
  1 Cl    17.1171    17.0000    -0.1171     1.0311     1.0311    -0.0000
  2 Cl    17.1171    17.0000    -0.1171     1.0311     1.0311     0.0000
  3 Cl    17.1171    17.0000    -0.1171     1.0311     1.0311    -0.0000
  4 H      0.8429     1.0000     0.1571     0.9557     0.9557     0.0000

  Mayer bond orders larger than 0.100000
B(  0-C ,  1-Cl) :   0.9847 B(  0-C ,  2-Cl) :   0.9847 B(  0-C ,  3-Cl) :   0.9847 
B(  0-C ,  4-H ) :   0.9444 

-------
TIMINGS
-------

Total SCF time: 0 days 0 hours 0 min 3 sec 

Total time                  ....       3.323 sec
Sum of individual times     ....       3.174 sec  ( 95.5%)

SCF preparation             ....       0.206 sec  (  6.2%)
Fock matrix formation       ....       0.607 sec  ( 18.3%)
  Startup                   ....       0.231 sec  ( 38.1% of F)
  Coulomb+Exchange Fock     ....       0.208 sec  ( 34.3% of F)
Diagonalization             ....       0.000 sec  (  0.0%)
Density matrix formation    ....       0.356 sec  ( 10.7%)
Total Energy calculation    ....       0.324 sec  (  9.8%)
Population analysis         ....       0.414 sec  ( 12.5%)
Orbital Transformation      ....       0.125 sec  (  3.8%)
Orbital Orthonormalization  ....       0.000 sec  (  0.0%)
DIIS solution               ....       0.789 sec  ( 23.7%)
  MO trafo                  ....       0.000 sec  (  0.0 % of DIIS)
  Orb grad                  ....       0.000 sec  (  0.0 % of DIIS)
  Energy W gradient         ....       0.000 sec  (  0.0 % of DIIS)
  DIIS error                ....       0.180 sec  ( 22.8 % of DIIS)
  DIIS work                 ....       0.413 sec  ( 52.3 % of DIIS)
  Form Q                    ....       0.000 sec  (  0.0 % of DIIS)
  Form QpQm                 ....       0.000 sec  (  0.0 % of DIIS)
  Exp/Cayley                ....       0.000 sec  (  0.0 % of DIIS)
  Orb update                ....       0.000 sec  (  0.0 % of DIIS)
  Wake-sleep                ....       0.125 sec  ( 15.8 % of DIIS)
SOSCF solution              ....       0.353 sec  ( 10.6%)
  MO trafo                  ....       0.206 sec  ( 58.4 % of SOSCF)
  Orb grad                  ....       0.036 sec  ( 10.2 % of SOSCF)
  Rot update                ....       0.003 sec  (  0.8 % of SOSCF)
  Step                      ....       0.107 sec  ( 30.3 % of SOSCF)
Finished LeanSCF after   3.4 sec

Maximum memory used throughout the entire LEANSCF-calculation: 6.7 MB

-------------------------   --------------------
FINAL SINGLE POINT ENERGY     -1416.450923108419
-------------------------   --------------------



           ************************************************************
           *        Program running with 20 parallel MPI-processes    *
           *              working on a common directory               *
           ************************************************************

------------------------------------------------------------------------------
                              ORCA PROPERTY CALCULATIONS
------------------------------------------------------------------------------

GBWName                                 ... D:\hty\creat\code\github\orcacal\Test\ORCA_cal\ORCA_structure\H2O_1\input.gbw
Number of atoms                         ...      5
Number of basis functions               ...     73
Max core memory                         ...    400 MB

Electric properties:
Dipole moment                           ... YES
Quadrupole moment                       ...  NO
Static polarizability (Dipole/Dipole)   ...  NO
Static polarizability (Dipole/Quad.)    ...  NO
Static polarizability (Quad./Quad.)     ...  NO
Static polarizability (Velocity)        ...  NO

Atomic electric properties:
Dipole moment                           ...  NO
Quadrupole moment                       ...  NO
Static polarizability                   ...  NO

Choice of electric origin               ... Center of mass
Position of electric origin             ...     0.000218     0.035333    -0.726586

General magnetic properties:
Magnetizability                         ...  NO

EPR properties:
g-Tensor (aka g-matrix)                 ...  NO
Zero-Field splitting spin-orbit         ...  NO
Zero-field splitting spin-spin          ...  NO
Hyperfine couplings                     ...  NO (   0 nuclei)
Quadrupole couplings                    ...  NO (   0 nuclei)
Contact density                         ...  NO (   0 nuclei)

NMR properties:
Chemical shifts                         ...  NO (   0 nuclei)
Spin-rotation constants                 ...  NO (   0 nuclei)
Spin-spin couplings                     ...  NO (   0 nuclei,    0 pairs)

Choice of magnetic origin               ... GIAO
Position of magnetic origin             ...     0.000000     0.000000     0.000000

Properties with geometric perturbations:
SCF Hessian                             ...  NO
IR spectrum                             ...  NO
VCD spectrum                            ...  NO
X-ray spectroscopy properties:
SCF XES/XAS/RIXS spectra                ...  NO


-------------
DIPOLE MOMENT
-------------

Method             : SCF
Type of density    : Electron Density
Multiplicity       :   1
Irrep              :   0
Energy             : -1416.4509231084189196 Eh
Relativity type    : 
Basis              : AO
                                X                 Y                 Z
Electronic contribution:      0.000376083       0.061100177      -1.256486712
Nuclear contribution   :     -0.000546231      -0.088661962       1.823244414
                        -----------------------------------------
Total Dipole Moment    :     -0.000170148      -0.027561785       0.566757702
                        -----------------------------------------
Magnitude (a.u.)       :      0.567427506
Magnitude (Debye)      :      1.442286099



--------------------
Rotational spectrum 
--------------------
 
Rotational constants in cm-1:             0.108118             0.108118             0.056405 
Rotational constants in MHz :          3241.309673          3241.307190          1690.991603 

Dipole components along the rotational axes: 
x,y,z [a.u.] :    -0.000001    -0.000001     0.567428 
x,y,z [Debye]:    -0.000002    -0.000003     1.442286 

 

Dipole moment calculation done in   0.1 sec 

Maximum memory used throughout the entire PROP-calculation: 2.1 MB

--------------------------------
SUGGESTED CITATIONS FOR THIS RUN
--------------------------------

Below you find a list of papers that are relevant to this ORCA run
We neither can nor want to force you to cite these papers, but we appreciate if you do
You receive ORCA, which is the product of decades of hard work by many enthusiastic individuals, for free
The only thing we kindly ask in return is that you cite our papers,
We deeply appreciate it, if you show your appreciation for ORCA by not just citing the generic ORCA reference.

Please note that relegating all ORCA citations to the supporting information does *not* help us.
SI sections are not indexed - citations you put there will not count into any citation statistics
But we need these citations in order to attract the funding resources that allow us to do what we are doing

Therefore, if you are a happy ORCA user, please consider citing a few of the papers listed below in the main body of your paper

In addition to the list printed below, the program has created the file D:\hty\creat\code\github\orcacal\Test\ORCA_cal\ORCA_structure\H2O_1\input.bibtex that contains the list in bibtex format
You can import this file easily into all common literature databanks and citation aid programs


List of essential papers. We consider these as the minimum necessary citations

  1. Neese,F.
     Software update: the ORCA program system, version 5.0
     WIRES Comput. Molec. Sci., 2022 12(1)e1606
     doi.org/10.1002/wcms.1606

List of papers to cite with high priority. The work reported in these papers was absolutely
necessary for this run to complete.
Our perspective: the developers of density functionals and basis sets usually get cited in chemistry papers
Good! But without the algorithms to do something with them, the functionals or basis sets would not do anything.
Hence, in our opinion, the algorithm design and method developments papers are equally worthy of getting cited

  1. Neese,F.
     The SHARK Integral Generation and Digestion System
     J. Comp. Chem., 2022  1-16
     doi.org/10.1002/jcc.26942

List of suggested additional citations. These are papers that are important in the 'surrounding' of 
of this run, or papers that preceded the highly important papers. If you like your results we are grateful for a citation.

  1. Neese,F.
     The ORCA program system
     WIRES Comput. Molec. Sci., 2012 2(1)73-78
     doi.org/10.1002/wcms.81
  2. Neese,F.
     Software update: the ORCA program system, version 4.0
     WIRES Comput. Molec. Sci., 2018 8(1)1-6
     doi.org/10.1002/wcms.1327
  3. Neese,F.; Wennmohs,F.; Becker,U.; Riplinger,C.
     The ORCA quantum chemistry program package
     J. Chem. Phys., 2020 152 Art. No. L224108
     doi.org/10.1063/5.0004608

List of optional additional citations

  1. Neese,F.
     Approximate second-order SCF convergence for spin unrestricted wavefunctions
     Chem. Phys. Lett., 2000 325(1-3)93-98
     doi.org/10.1016/s0009-2614(00)00662-x

Timings for individual modules:

Sum of individual times          ...        7.747 sec (=   0.129 min)
Startup calculation              ...        1.325 sec (=   0.022 min)  17.1 %
SCF iterations                   ...        5.453 sec (=   0.091 min)  70.4 %
Property calculations            ...        0.969 sec (=   0.016 min)  12.5 %
                             ****ORCA TERMINATED NORMALLY****
TOTAL RUN TIME: 0 days 0 hours 0 minutes 9 seconds 269 msec
