
                                 *****************
                                 * O   R   C   A *
                                 *****************

                                            #,                                       
                                            ###                                      
                                            ####                                     
                                            #####                                    
                                            ######                                   
                                           ########,                                 
                                     ,,################,,,,,                         
                               ,,#################################,,                 
                          ,,##########################################,,             
                       ,#########################################, ''#####,          
                    ,#############################################,,   '####,        
                  ,##################################################,,,,####,       
                ,###########''''           ''''###############################       
              ,#####''   ,,,,##########,,,,          '''####'''          '####       
            ,##' ,,,,###########################,,,                        '##       
           ' ,,###''''                  '''############,,,                           
         ,,##''                                '''############,,,,        ,,,,,,###''
      ,#''                                            '''#######################'''  
     '                                                          ''''####''''         
             ,#######,   #######,   ,#######,      ##                                
            ,#'     '#,  ##    ##  ,#'     '#,    #''#        ,####,   ,####,        
            ##       ##  ##   ,#'  ##            #'  '#       #'       #'  '#        
            ##       ##  #######   ##           ,######,      #####,   #    #        
            '#,     ,#'  ##    ##  '#,     ,#' ,#      #,     #,   #   #,  ,#        
             '#######'   ##     ##  '#######'  #'      '#     '####' # '####'        



                #########################################################
                #                        -***-                          #
                #          Department of theory and spectroscopy        #
                #                                                       #
                #                      Frank Neese                      #
                #                                                       #
                #     Directorship, Architecture, Infrastructure        #
                #                    SHARK, DRIVERS                     #
                #        Core code/Algorithms in most modules           #
                #                                                       #
                #        Max Planck Institute fuer Kohlenforschung      #
                #                Kaiser Wilhelm Platz 1                 #
                #                 D-45470 Muelheim/Ruhr                 #
                #                      Germany                          #
                #                                                       #
                #                  All rights reserved                  #
                #                        -***-                          #
                #########################################################


                         Program Version 6.0.0  -   RELEASE   -


 With contributions from (in alphabetic order):
   Daniel Aravena         : Magnetic Suceptibility
   Michael Atanasov       : Ab Initio Ligand Field Theory (pilot matlab implementation)
   Alexander A. Auer      : GIAO ZORA, VPT2 properties, NMR spectrum
   Ute Becker             : All parallelization in ORCA, NUMFREQ, NUMCALC
   Giovanni Bistoni       : ED, misc. LED, open-shell LED, HFLD
   Martin Brehm           : Molecular dynamics
   Dmytro Bykov           : pre 5.0 version of the SCF Hessian
   Marcos Casanova-Páez   : Triplet and SCS-CIS(D). UHF-(DLPNO)-IP/EA/STEOM-CCSD. UHF-CVS-IP/STEOM-CCSD
   Vijay G. Chilkuri      : MRCI spin determinant printing, contributions to CSF-ICE
   Pauline Colinet        : FMM embedding
   Dipayan Datta          : RHF DLPNO-CCSD density
   Achintya Kumar Dutta   : EOM-CC, STEOM-CC
   Nicolas Foglia         : Exact transition moments, OPA infrastructure, MCD improvements
   Dmitry Ganyushin       : Spin-Orbit,Spin-Spin,Magnetic field MRCI
   Miquel Garcia          : C-PCM and meta-GGA Hessian, CCSD/C-PCM, Gaussian charge scheme
   Tiago L. C. Gouveia    : GS-ROHF, GS-ROCIS
   Yang Guo               : DLPNO-NEVPT2, F12-NEVPT2, CIM, IAO-localization
   Andreas Hansen         : Spin unrestricted coupled pair/coupled cluster methods
   Ingolf Harden          : AUTO-CI MPn and infrastructure 
   Benjamin Helmich-Paris : MC-RPA, TRAH-(SCF,CASSCF), AVAS, COSX integrals, SCF dyn. polar.
   Lee Huntington         : MR-EOM, pCC
   Robert Izsak           : Overlap fitted RIJCOSX, COSX-SCS-MP3, EOM
   Riya Kayal             : Wick's Theorem for AUTO-CI, AUTO-CI UHF-CCSDT
   Emily Kempfer          : AUTO-CI, RHF CISDT and CCSDT
   Christian Kollmar      : KDIIS, OOCD, Brueckner-CCSD(T), CCSD density, CASPT2, CASPT2-K, improved NEVPT2
   Axel Koslowski         : Symmetry handling
   Simone Kossmann        : Meta GGA functionals, TD-DFT gradient, OOMP2, (MP2 Hessian; deprecated post 5.0)
   Lucas Lang             : DCDCAS
   Marvin Lechner         : AUTO-CI (C++ implementation), FIC-MRCC
   Spencer Leger          : CASSCF response
   Dagmar Lenk            : GEPOL surface, SMD, ORCA-2-JSON
   Dimitrios Liakos       : Extrapolation schemes; Compound Job, initial MDCI parallelization
   Dimitrios Manganas     : Further ROCIS development; embedding schemes. LFT, Crystal Embedding
   Dimitrios Pantazis     : SARC Basis sets
   Anastasios Papadopoulos: AUTO-CI, single reference methods and gradients
   Taras Petrenko         : pre 6.0 DFT Hessian and TD-DFT gradient, (ASA, deprecated), ECA, 1-Electron XAS/XES, NRVS
   Peter Pinski           : DLPNO-MP2, DLPNO-MP2 Gradient
   Christoph Reimann      : Effective Core Potentials
   Marius Retegan         : Local ZFS, SOC
   Christoph Riplinger    : Optimizer, TS searches, QM/MM, DLPNO-CCSD(T), (RO)-DLPNO pert. Triples
   Michael Roemelt        : Original ROCIS implementation
   Masaaki Saitow         : Open-shell DLPNO-CCSD energy and density
   Barbara Sandhoefer     : DKH picture change effects
   Kantharuban Sivalingam : CASSCF convergence/infrastructure, NEVPT2 and variants, FIC-MRCI
   Bernardo de Souza      : ESD, SOC TD-DFT
   Georgi Stoychev        : AutoAux, RI-MP2 NMR, DLPNO-MP2 response, X2C
   Van Anh Tran           : RI-MP2 g-tensors
   Willem Van den Heuvel  : Paramagnetic NMR
   Zikuan Wang            : NOTCH, Electric field optimization 
   Frank Wennmohs         : Technical directorship and infrastructure
   Hang Xu                : AUTO-CI-Response properties 


 We gratefully acknowledge several colleagues who have allowed us to
 interface, adapt or use parts of their codes:
   Stefan Grimme, W. Hujo, H. Kruse, P. Pracht,  : VdW corrections, initial TS optimization,
                  C. Bannwarth, S. Ehlert,         DFT functionals, gCP, sTDA/sTD-DF
                  L. Wittmann, M. Mueller
   Ed Valeev, F. Pavosevic, A. Kumar             : LibInt (2-el integral package), F12 methods
   Garnet Chan, S. Sharma, J. Yang, R. Olivares  : DMRG
   Ulf Ekstrom                                   : XCFun DFT Library
   Mihaly Kallay                                 : mrcc  (arbitrary order and MRCC methods)
   Frank Weinhold                                : gennbo (NPA and NBO analysis)
   Simon Mueller                                 : openCOSMO-RS
   Christopher J. Cramer and Donald G. Truhlar   : smd solvation model
   Lars Goerigk                                  : TD-DFT with DH, B97 family of functionals
   V. Asgeirsson, H. Jonsson                     : NEB implementation
   FAccTs GmbH                                   : IRC, NEB, NEB-TS, DLPNO-Multilevel, CI-OPT
                                                   MM, QMMM, 2- and 3-layer-ONIOM, Crystal-QMMM,
                                                   LR-CPCM, SF, NACMEs, symmetry and pop. for TD-DFT,
                                                   nearIR, NL-DFT gradient (VV10), updates on ESD,
                                                   ML-optimized integration grids, MBIS, APM,
                                                   GOAT, DOCKER, SOLVATOR, interface openCOSMO-RS
   S Lehtola, MJT Oliveira, MAL Marques          : LibXC Library
   Liviu Ungur et al                             : ANISO software


 Your calculation uses the libint2 library for the computation of 2-el integrals
 For citations please refer to: http://libint.valeyev.net

 Your ORCA version has been built with support for libXC version: 6.2.2
 For citations please refer to: https://libxc.gitlab.io

 This ORCA versions uses:
   CBLAS   interface :  Fast vector & matrix operations
   LAPACKE interface :  Fast linear algebra routines
   Shared memory     :  Shared parallel matrices


NOTE: MaxCore=2000 MB was set to SCF,MP2,MDCI,CIPSI,MRCI and CIS
      => If you want to overwrite this, your respective input block should be placed after the MaxCore statement
Your calculation utilizes the atom-pairwise dispersion correction
with the Becke-Johnson damping scheme (D3BJ)


================================================================================

----- Orbital basis set information -----
Your calculation utilizes the basis: def2-TZVP(-f)
   F. Weigend and R. Ahlrichs, Phys. Chem. Chem. Phys. 7, 3297 (2005).

----- AuxJ basis set information -----
Your calculation utilizes the auxiliary basis: def2/J
   F. Weigend, Phys. Chem. Chem. Phys. 8, 1057 (2006).

================================================================================
                                        WARNINGS
                       Please study these warnings very carefully!
================================================================================

WARNING: Old DensityContainer found on disk!
         Will remove this file - 
         If you want to keep old densities, please start your calculation with a different basename. 


================================================================================
                                       INPUT FILE
================================================================================
NAME = D:\hty\creat\code\github\pyORCA\Goble\..\Test\ORCA_cal\ORCA_structure\H2O_1\input.inp
|  1> ! B3LYP D3 def2-TZVP(-f) def2/J RIJCOSX tightSCF miniprint nopop LARGEPRINT
|  2> 
|  3> %maxcore  2000
|  4> %pal nprocs  20 end
|  5> 
|  6> * xyz 0 1
|  7> O   0.0000   0.0000   0.0626
|  8> H  -0.7920   0.0000  -0.4973
|  9> H   0.7920   0.0000  -0.4973
| 10> *
| 11> 
| 12> 
| 13> 
| 14> 
| 15>                          ****END OF INPUT****
================================================================================

                       ****************************
                       * Single Point Calculation *
                       ****************************

---------------------------------
CARTESIAN COORDINATES (ANGSTROEM)
---------------------------------
  O      0.000000    0.000000    0.062600
  H     -0.792000    0.000000   -0.497300
  H      0.792000    0.000000   -0.497300

----------------------------
CARTESIAN COORDINATES (A.U.)
----------------------------
  NO LB      ZA    FRAG     MASS         X           Y           Z
   0 O     8.0000    0    15.999    0.000000    0.000000    0.118297
   1 H     1.0000    0     1.008   -1.496663    0.000000   -0.939761
   2 H     1.0000    0     1.008    1.496663    0.000000   -0.939761

--------------------------------
INTERNAL COORDINATES (ANGSTROEM)
--------------------------------
 O      0   0   0     0.000000000000     0.00000000     0.00000000
 H      1   0   0     0.969923713495     0.00000000     0.00000000
 H      1   2   0     0.969923713495   109.48362320     0.00000000

---------------------------
INTERNAL COORDINATES (A.U.)
---------------------------
 O      0   0   0     0.000000000000     0.00000000     0.00000000
 H      1   0   0     1.832890189302     0.00000000     0.00000000
 H      1   2   0     1.832890189302   109.48362320     0.00000000

---------------------
BASIS SET INFORMATION
---------------------
There are 2 groups of distinct atoms

 Group   1 Type O   : 11s6p2d contracted to 5s3p2d pattern {62111/411/11}
 Group   2 Type H   : 5s1p contracted to 3s1p pattern {311/1}

Atom   0O    basis set group =>   1
Atom   1H    basis set group =>   2
Atom   2H    basis set group =>   2

-------------------------
BASIS SET IN INPUT FORMAT
-------------------------

 # Basis set for element : H 
 NewGTO H 
 S 3 
   1      34.0613410000      0.0254393072
   2       5.1235746000      0.1900859489
   3       1.1646626000      0.8524411301
 S 1 
   1       0.3272304100      1.0000000000
 S 1 
   1       0.1030724100      1.0000000000
 P 1 
   1       0.8000000000      1.0000000000
  end;

 # Basis set for element : O 
 NewGTO O 
 S 6 
   1   27032.3826310000      0.0005722733
   2    4052.3871392000      0.0044353233
   3     922.3272271000      0.0230201076
   4     261.2407098900      0.0928224906
   5      85.3546413510      0.2937850002
   6      31.0350352450      0.6740160450
 S 2 
   1      12.2608607280      0.6383993702
   2       4.9987076005      0.3953458713
 S 1 
   1       1.1703108158      1.0000000000
 S 1 
   1       0.4647474099      1.0000000000
 S 1 
   1       0.1850453636      1.0000000000
 P 4 
   1      63.2749548010      0.0120183321
   2      14.6270493790      0.0830054217
   3       4.4501223456      0.3199174393
   4       1.5275799647      0.7071554292
 P 1 
   1       0.5293511794      1.0000000000
 P 1 
   1       0.1747842127      1.0000000000
 D 1 
   1       2.3140000000      1.0000000000
 D 1 
   1       0.6450000000      1.0000000000
  end;

---------------------------------
AUXILIARY/J BASIS SET INFORMATION
---------------------------------
There are 2 groups of distinct atoms

 Group   1 Type O   : 12s5p4d2f1g contracted to 6s4p3d1f1g pattern {711111/2111/211/2/1}
 Group   2 Type H   : 5s2p1d contracted to 3s1p1d pattern {311/2/1}

Atom   0O    basis set group =>   1
Atom   1H    basis set group =>   2
Atom   2H    basis set group =>   2

-------------------------------------
AUXILIARY/J BASIS SET IN INPUT FORMAT
-------------------------------------

 # Auxiliary/J basis set for element : H 
 NewAuxJGTO H 
 S 3 
   1      15.6752927000      0.1007184237
   2       3.6063578000      0.3404257499
   3       1.2080016000      0.6491996172
 S 1 
   1       0.4726794000      1.0000000000
 S 1 
   1       0.2018100000      1.0000000000
 P 2 
   1       2.0281365000      0.5596620919
   2       0.5358730000      0.5596620919
 D 1 
   1       2.2165124000      1.0000000000
  end;

 # Auxiliary/J basis set for element : O 
 NewAuxJGTO O 
 S 7 
   1    2876.8216605000      0.0168151159
   2    1004.7443032000      0.0340137548
   3     369.7579954000      0.1194951309
   4     142.9442404000      0.2664627624
   5      57.8366425000      0.4202764046
   6      24.3864983000      0.2765077335
   7      10.6622662000      0.0057008815
 S 1 
   1       4.8070437000     -1.0000000000
 S 1 
   1       2.2210770000      1.0000000000
 S 1 
   1       1.0447795000      1.0000000000
 S 1 
   1       0.4968425000      1.0000000000
 S 1 
   1       0.2371384000      1.0000000000
 P 2 
   1      64.2613382000     -0.2731534179
   2      16.3006076000     -0.8168011598
 P 1 
   1       4.3550542000      1.0000000000
 P 1 
   1       1.2019554000      1.0000000000
 P 1 
   1       0.3354196000      1.0000000000
 D 2 
   1       9.2146611000     -0.4661230638
   2       2.8435251000     -0.6600908911
 D 1 
   1       0.9955759000     -1.0000000000
 D 1 
   1       0.3649441000     -1.0000000000
 F 2 
   1       2.6420115000      0.5931563945
   2       0.7345613000      0.5931563945
 G 1 
   1       1.3931000000     -1.0000000000
  end;


Checking for AutoStart:
The File: D:\hty\creat\code\github\pyORCA\Goble\..\Test\ORCA_cal\ORCA_structure\H2O_1\input.gbw exists
Trying to determine its content:
     ... Fine, the file contains calculation information
     ... Fine, the calculation information was read
     ... Fine, the file contains a basis set
     ... Fine, the basis set was read
     ... Fine, the file contains a geometry
     ... Fine, the geometry was read
     ... Fine, the file contains a set of orbitals
     ... Fine, the orbitals can be read
     => possible old guess file was deleted
     => GBW file was renamed to GES file
     => GES file is set as startup file
     => Guess is set to MORead
     ... now leaving AutoStart



           ************************************************************
           *        Program running with 20 parallel MPI-processes    *
           *              working on a common directory               *
           ************************************************************
------------------------------------------------------------------------------
                             ORCA STARTUP CALCULATIONS
                           -- RI-GTO INTEGRALS CHOSEN --
------------------------------------------------------------------------------
------------------------------------------------------------------------------
                   ___                                                        
                  /   \      - P O W E R E D   B Y -                         
                 /     \                                                     
                 |  |  |   _    _      __       _____    __    __             
                 |  |  |  | |  | |    /  \     |  _  \  |  |  /  |          
                  \  \/   | |  | |   /    \    | | | |  |  | /  /          
                 / \  \   | |__| |  /  /\  \   | |_| |  |  |/  /          
                |  |  |   |  __  | /  /__\  \  |    /   |      \           
                |  |  |   | |  | | |   __   |  |    \   |  |\   \          
                \     /   | |  | | |  |  |  |  | |\  \  |  | \   \       
                 \___/    |_|  |_| |__|  |__|  |_| \__\ |__|  \__/        
                                                                              
                      - O R C A' S   B I G   F R I E N D -                    
                                      &                                       
                       - I N T E G R A L  F E E D E R -                       
                                                                              
 v1 FN, 2020, v2 2021, v3 2022-2024                                           
------------------------------------------------------------------------------


----------------------
SHARK INTEGRAL PACKAGE
----------------------

Number of atoms                             ...      3
Number of basis functions                   ...     36
Number of shells                            ...     18
Maximum angular momentum                    ...      2
Integral batch strategy                     ... SHARK/LIBINT Hybrid
RI-J (if used) integral strategy            ... SPLIT-RIJ (Revised 2003 algorithm where possible)
Printlevel                                  ...      1
Contraction scheme used                     ... SEGMENTED contraction
Prescreening option                         ... SCHWARTZ
   Thresh                                   ... 2.500e-11
   Tcut                                     ... 2.500e-12
   Tpresel                                  ... 2.500e-12 
Coulomb Range Separation                    ... NOT USED
Exchange Range Separation                   ... NOT USED
Multipole approximations                    ... NOT USED
Finite Nucleus Model                        ... NOT USED
CABS basis                                  ... NOT available
Auxiliary Coulomb fitting basis             ... AVAILABLE
   # of basis functions in Aux-J            ...     71
   # of shells in Aux-J                     ...     25
   Maximum angular momentum in Aux-J        ...      4
Auxiliary J/K fitting basis                 ... NOT available
Auxiliary Correlation fitting basis         ... NOT available
Auxiliary 'external' fitting basis          ... NOT available

Checking pre-screening integrals            ... done (  0.0 sec) Dimension = 18
Check shell pair data                       ... done (  0.0 sec)
Shell pair information
Shell pair cut-off parameter TPreSel        ...   2.5e-12
Total number of shell pairs                 ...       171
Shell pairs after pre-screening             ...       171
Total number of primitive shell pairs       ...       524
Primitive shell pairs kept                  ...       503
          la=0 lb=0:     66 shell pairs
          la=1 lb=0:     55 shell pairs
          la=1 lb=1:     15 shell pairs
          la=2 lb=0:     22 shell pairs
          la=2 lb=1:     10 shell pairs
          la=2 lb=2:      3 shell pairs

Calculating one electron integrals          ... done (  0.0 sec)
Calculating RI/J V-Matrix + Cholesky decomp.... done (  0.0 sec)
Calculating Nuclear repulsion               ... done (  0.0 sec) ENN=      9.063459269773 Eh

Diagonalization of the overlap matrix:
Smallest eigenvalue                        ... 1.072e-02
Time for diagonalization                   ...    0.000 sec
Threshold for overlap eigenvalues          ... 1.000e-07
Number of eigenvalues below threshold      ... 0
Time for construction of square roots      ...    0.001 sec
Total time needed                          ...    0.003 sec

-------------------
DFT GRID GENERATION
-------------------

General Integration Accuracy     IntAcc      ... 4.388
Radial Grid Type                 RadialGrid  ... OptM3 with GC (2021)
Angular Grid (max. ang.)         AngularGrid ... 4 (Lebedev-302)
Angular grid pruning method      GridPruning ... 4 (adaptive)
Weight generation scheme         WeightScheme... mBecke (2022)
Basis function cutoff            BFCut       ... 1.0000e-11
Integration weight cutoff        WCut        ... 1.0000e-14
Partially contracted basis set               ... off
Rotationally invariant grid construction     ... off
Angular grids for H and He will be reduced by one unit

Total number of grid points                  ...    12750
Total number of batches                      ...      200
Average number of points per batch           ...       63
Average number of grid points per atom       ...     4250

--------------------
COSX GRID GENERATION
--------------------

GRIDX 1
-------
General Integration Accuracy     IntAcc      ... 3.816
Radial Grid Type                 RadialGrid  ... OptM3 with GC (2021)
Angular Grid (max. ang.)         AngularGrid ... 1 (Lebedev-50)
Angular grid pruning method      GridPruning ... 4 (adaptive)
Weight generation scheme         WeightScheme... mBecke (2022)
Basis function cutoff            BFCut       ... 1.0000e-11
Integration weight cutoff        WCut        ... 1.0000e-14
Partially contracted basis set               ... on
Rotationally invariant grid construction     ... off
Angular grids for H and He will be reduced by one unit

Total number of grid points                  ...     1654
Total number of batches                      ...       14
Average number of points per batch           ...      118
Average number of grid points per atom       ...      551
UseSFitting                                  ... on

GRIDX 2
-------
General Integration Accuracy     IntAcc      ... 4.020
Radial Grid Type                 RadialGrid  ... OptM3 with GC (2021)
Angular Grid (max. ang.)         AngularGrid ... 2 (Lebedev-110)
Angular grid pruning method      GridPruning ... 4 (adaptive)
Weight generation scheme         WeightScheme... mBecke (2022)
Basis function cutoff            BFCut       ... 1.0000e-11
Integration weight cutoff        WCut        ... 1.0000e-14
Partially contracted basis set               ... on
Rotationally invariant grid construction     ... off
Angular grids for H and He will be reduced by one unit

Total number of grid points                  ...     3508
Total number of batches                      ...       30
Average number of points per batch           ...      116
Average number of grid points per atom       ...     1169
UseSFitting                                  ... on

GRIDX 3
-------
General Integration Accuracy     IntAcc      ... 4.338
Radial Grid Type                 RadialGrid  ... OptM3 with GC (2021)
Angular Grid (max. ang.)         AngularGrid ... 3 (Lebedev-194)
Angular grid pruning method      GridPruning ... 4 (adaptive)
Weight generation scheme         WeightScheme... mBecke (2022)
Basis function cutoff            BFCut       ... 1.0000e-11
Integration weight cutoff        WCut        ... 1.0000e-14
Partially contracted basis set               ... on
Rotationally invariant grid construction     ... off
Angular grids for H and He will be reduced by one unit

Total number of grid points                  ...     7762
Total number of batches                      ...       62
Average number of points per batch           ...      125
Average number of grid points per atom       ...     2587
UseSFitting                                  ... on
Initializing property integral containers    ... done (  0.0 sec)

SHARK setup successfully completed in   0.3 seconds

Maximum memory used throughout the entire STARTUP-calculation: 9.5 MB


           ************************************************************
           *        Program running with 20 parallel MPI-processes    *
           *              working on a common directory               *
           ************************************************************
-------------------------------------------------------------------------------
                                 ORCA GUESS
                   Start orbitals & Density for SCF / CASSCF
-------------------------------------------------------------------------------

------------
SCF SETTINGS
------------
Hamiltonian:
 Density Functional     Method          .... DFT(GTOs)
 Exchange Functional    Exchange        .... B88
   X-Alpha parameter    XAlpha          ....  0.666667
   Becke's b parameter  XBeta           ....  0.004200
 Correlation Functional Correlation     .... LYP
 LDA part of GGA corr.  LDAOpt          .... VWN-5
 Gradients option       PostSCFGGA      .... off
 Hybrid DFT is turned on
   Fraction HF Exchange ScalHFX         ....  0.200000
   Scaling of DF-GGA-X  ScalDFX         ....  0.720000
   Scaling of DF-GGA-C  ScalDFC         ....  0.810000
   Scaling of DF-LDA-C  ScalLDAC        ....  1.000000
   Perturbative correction              ....  0.000000
   NL short-range parameter             ....  4.800000
 RI-approximation to the Coulomb term is turned on
   Number of AuxJ basis functions       .... 71
   RIJ-COSX (HFX calculated with COS-X)).... on


General Settings:
 Integral files         IntName         .... D:\hty\creat\code\github\pyORCA\Goble\..\Test\ORCA_cal\ORCA_structure\H2O_1\input
 Hartree-Fock type      HFTyp           .... RHF
 Total Charge           Charge          ....    0
 Multiplicity           Mult            ....    1
 Number of Electrons    NEL             ....   10
 Basis Dimension        Dim             ....   36
 Nuclear Repulsion      ENuc            ....      9.0634592698 Eh

Convergence Acceleration:
 AO-DIIS                CNVDIIS         .... on
   Start iteration      DIISMaxIt       ....    12
   Startup error        DIISStart       ....  0.200000
   # of expansion vecs  DIISMaxEq       ....     5
   Bias factor          DIISBfac        ....   1.050
   Max. coefficient     DIISMaxC        ....  10.000
 MO-DIIS                CNVKDIIS        .... off
 Trust-Rad. Augm. Hess. CNVTRAH         .... auto
   Auto Start mean grad. ratio tolernc. ....  1.125000
   Auto Start start iteration           ....     1
   Auto Start num. interpolation iter.  ....    10
   Max. Number of Micro iterations      ....    24
   Max. Number of Macro iterations      .... Maxiter - #DIIS iter
   Number of Davidson start vectors     ....     2
   Converg. threshold    (grad. norm)   ....   1.000e-05
   Grad. Scal. Fac. for Micro threshold ....   0.100
   Minimum threshold for Micro iter.    ....   1.000e-02
   NR start threshold (gradient norm)   ....   1.000e-04
   Initial trust radius                 ....   0.400
   Minimum AH scaling param. (alpha)    ....   1.000
   Maximum AH scaling param. (alpha)    .... 1000.000
   Quad. conv. algorithm                .... NR
   White noise on init. David. guess    .... on
   Maximum white noise                  ....   0.010
   Pseudo random numbers                .... off
   Inactive MOs                         .... canonical
   Orbital update algorithm             .... Taylor
   Preconditioner                       .... Diag
   Full preconditioner red. dimension   ....   250
 SOSCF                  CNVSOSCF        .... on
   Start iteration      SOSCFMaxIt      ....   150
   Startup grad/error   SOSCFStart      ....  0.003300
   Hessian update       SOSCFHessUp     .... L-BFGS
 Level Shifting         CNVShift        .... on
   Level shift para.    LevelShift      ....    0.2500
   Turn off err/grad.   ShiftErr        ....    0.0010
 Zerner damping         CNVZerner       .... off
 Static damping         CNVDamp         .... on
   Fraction old density DampFac         ....    0.7000
   Max. Damping (<1)    DampMax         ....    0.9800
   Min. Damping (>=0)   DampMin         ....    0.0000
   Turn off err/grad.   DampErr         ....    0.1000

SCF Procedure:
 Maximum # iterations   MaxIter         ....   125
 SCF integral mode      SCFMode         .... Direct
   Integral package                     .... SHARK and LIBINT hybrid scheme
 Reset frequency        DirectResetFreq ....    20
 Integral Threshold     Thresh          ....  2.500e-11 Eh
 Primitive CutOff       TCut            ....  2.500e-12 Eh

Convergence Tolerance:
 Convergence Check Mode ConvCheckMode   .... Total+1el-Energy
 Convergence forced     ConvForced      .... 0
 Energy Change          TolE            ....  1.000e-08 Eh
 1-El. energy change                    ....  1.000e-05 Eh
 Orbital Gradient       TolG            ....  1.000e-05
 Orbital Rotation angle TolX            ....  1.000e-05
 DIIS Error             TolErr          ....  5.000e-07

---------------------
INITIAL GUESS: MOREAD
---------------------
Guess MOs are being read from file: D:\hty\creat\code\github\pyORCA\Goble\..\Test\ORCA_cal\ORCA_structure\H2O_1\input.ges
Input Geometry matches current geometry (good)
Input basis set matches current basis set (good)
Occupation numbers will be reassigned to an Aufbau configuration
MOs were renormalized
MOs were reorthogonalized (Cholesky)
                      ------------------
                      INITIAL GUESS DONE (   0.0 sec)
                      ------------------
----------------------
INITIAL GUESS ORBITALS
----------------------
                      0         1         2         3         4         5   
                 -19.12295  -1.00477  -0.53710  -0.37890  -0.31052   0.01569
                   2.00000   2.00000   2.00000   2.00000   2.00000   0.00000
                  --------  --------  --------  --------  --------  --------
  0O   1s        -0.435062  0.098113  0.000000  0.035396 -0.000000 -0.034192
  0O   2s        -0.639786  0.230869  0.000000  0.084467 -0.000000 -0.086083
  0O   3s        -0.033814 -0.341467  0.000000 -0.129792  0.000000  0.194024
  0O   4s         0.021163 -0.426707 -0.000000 -0.194434  0.000000 -0.031005
  0O   5s        -0.009255 -0.155357  0.000000 -0.223290  0.000000  1.168799
  0O   1pz        0.001691  0.082164  0.000000 -0.420779  0.000000 -0.159298
  0O   1px       -0.000000 -0.000000  0.383446  0.000000 -0.000000  0.000000
  0O   1py        0.000000 -0.000000 -0.000000 -0.000000 -0.476642  0.000000
  0O   2pz       -0.002340  0.062506  0.000000 -0.320700  0.000000 -0.113922
  0O   2px        0.000000 -0.000000  0.285774  0.000000  0.000000 -0.000000
  0O   2py       -0.000000 -0.000000  0.000000 -0.000000 -0.381759  0.000000
  0O   3pz        0.001162  0.009303  0.000000 -0.246654  0.000000 -0.323095
  0O   3px        0.000000 -0.000000  0.117761  0.000000  0.000000  0.000000
  0O   3py        0.000000  0.000000 -0.000000 -0.000000 -0.340202  0.000000
  0O   1dz2      -0.000012 -0.000812  0.000000  0.004135  0.000000  0.001700
  0O   1dxz      -0.000000 -0.000000 -0.012317  0.000000  0.000000 -0.000000
  0O   1dyz       0.000000  0.000000  0.000000 -0.000000  0.004249  0.000000
  0O   1dx2y2    -0.000174 -0.004978 -0.000000  0.002908 -0.000000 -0.001964
  0O   1dxy       0.000000 -0.000000 -0.000000  0.000000 -0.000000  0.000000
  0O   2dz2       0.000027 -0.003386  0.000000  0.025465 -0.000000  0.009039
  0O   2dxz       0.000000  0.000000 -0.019119 -0.000000 -0.000000  0.000000
  0O   2dyz       0.000000 -0.000000 -0.000000  0.000000  0.024770 -0.000000
  0O   2dx2y2     0.000705 -0.007080 -0.000000 -0.003419  0.000000 -0.007189
  0O   2dxy       0.000000 -0.000000  0.000000  0.000000 -0.000000  0.000000
  1H   1s        -0.000612 -0.094366 -0.150921  0.085748 -0.000000 -0.042397
  1H   2s        -0.001125 -0.077566 -0.192155  0.124182  0.000000 -0.098331
  1H   3s         0.001840 -0.006521 -0.063927  0.045357 -0.000000 -0.935655
  1H   1pz       -0.000423 -0.010654 -0.019755 -0.009036  0.000000  0.016506
  1H   1px       -0.000644 -0.019024 -0.012981  0.018775  0.000000  0.028896
  1H   1py       -0.000000 -0.000000 -0.000000 -0.000000 -0.026780  0.000000
  2H   1s        -0.000612 -0.094366  0.150921  0.085748 -0.000000 -0.042397
  2H   2s        -0.001125 -0.077566  0.192155  0.124182 -0.000000 -0.098331
  2H   3s         0.001840 -0.006521  0.063927  0.045357  0.000000 -0.935655
  2H   1pz       -0.000423 -0.010654  0.019755 -0.009036 -0.000000  0.016506
  2H   1px        0.000644  0.019024 -0.012981 -0.018775  0.000000 -0.028896
  2H   1py       -0.000000 -0.000000  0.000000 -0.000000 -0.026780  0.000000
                      6         7         8         9        10        11   
                   0.08981   0.36552   0.39628   0.42876   0.43339   0.56859
                   0.00000   0.00000   0.00000   0.00000   0.00000   0.00000
                  --------  --------  --------  --------  --------  --------
  0O   1s         0.000000 -0.000000  0.034313  0.000000  0.002216 -0.000000
  0O   2s         0.000000 -0.000000  0.076299  0.000000  0.003500 -0.000000
  0O   3s        -0.000000 -0.000000  0.001712 -0.000000  0.004382 -0.000000
  0O   4s        -0.000000  0.000000 -0.744090 -0.000000 -0.046587  0.000000
  0O   5s        -0.000000  0.000000 -0.589105 -0.000000  0.107895 -0.000000
  0O   1pz        0.000000 -0.000000  0.007299 -0.000000 -0.338122 -0.000000
  0O   1px        0.254217  0.123657  0.000000 -0.000000 -0.000000  0.353006
  0O   1py       -0.000000  0.000000 -0.000000  0.318545 -0.000000 -0.000000
  0O   2pz        0.000000 -0.000000  0.066406 -0.000000 -0.735531  0.000000
  0O   2px        0.120694  0.345117  0.000000  0.000000 -0.000000  0.752621
  0O   2py       -0.000000  0.000000 -0.000000  0.701548 -0.000000 -0.000000
  0O   3pz        0.000000 -0.000000  1.162197  0.000000  1.004850  0.000000
  0O   3px        0.694553  1.247143  0.000000 -0.000000 -0.000000 -2.074581
  0O   3py       -0.000000 -0.000000  0.000000 -1.233072  0.000000 -0.000000
  0O   1dz2       0.000000  0.000000  0.001441  0.000000  0.007661 -0.000000
  0O   1dxz       0.001232  0.031582  0.000000  0.000000 -0.000000 -0.011138
  0O   1dyz       0.000000  0.000000  0.000000 -0.006434 -0.000000 -0.000000
  0O   1dx2y2    -0.000000 -0.000000  0.020621 -0.000000 -0.005183  0.000000
  0O   1dxy       0.000000  0.000000  0.000000  0.000000 -0.000000  0.000000
  0O   2dz2      -0.000000 -0.000000 -0.026066 -0.000000 -0.001759 -0.000000
  0O   2dxz       0.017748 -0.112758 -0.000000 -0.000000  0.000000  0.056751
  0O   2dyz       0.000000  0.000000 -0.000000  0.007167  0.000000  0.000000
  0O   2dx2y2     0.000000  0.000000 -0.046725 -0.000000 -0.008234 -0.000000
  0O   2dxy       0.000000 -0.000000 -0.000000 -0.000000  0.000000  0.000000
  1H   1s         0.032537  0.116322  0.101653 -0.000000 -0.061741  0.062148
  1H   2s         0.026336  1.461094  1.521515 -0.000000 -0.459424  0.067428
  1H   3s         1.599586 -0.510249 -0.504781  0.000000  0.444221 -1.594409
  1H   1pz       -0.030448  0.028666  0.059670  0.000000 -0.013980 -0.027122
  1H   1px       -0.034299  0.087201  0.046156  0.000000  0.009931 -0.033768
  1H   1py       -0.000000 -0.000000  0.000000  0.003892 -0.000000 -0.000000
  2H   1s        -0.032537 -0.116322  0.101653 -0.000000 -0.061741 -0.062148
  2H   2s        -0.026336 -1.461094  1.521515 -0.000000 -0.459424 -0.067428
  2H   3s        -1.599586  0.510249 -0.504781  0.000000  0.444221  1.594409
  2H   1pz        0.030448 -0.028666  0.059670 -0.000000 -0.013980  0.027122
  2H   1px       -0.034299  0.087201 -0.046156  0.000000 -0.009931 -0.033768
  2H   1py       -0.000000  0.000000 -0.000000  0.003892  0.000000 -0.000000
                     12        13        14        15        16        17   
                   0.59518   1.17918   1.20016   1.31108   1.53720   1.62963
                   0.00000   0.00000   0.00000   0.00000   0.00000   0.00000
                  --------  --------  --------  --------  --------  --------
  0O   1s        -0.053113  0.000000 -0.003751 -0.000000 -0.000000  0.014859
  0O   2s        -0.109754  0.000000 -0.008856 -0.000000 -0.000000  0.047256
  0O   3s        -0.111486 -0.000000  0.012656  0.000000  0.000000 -0.305929
  0O   4s         2.317475 -0.000000  0.174420 -0.000000 -0.000000  0.425441
  0O   5s        -4.688515  0.000000 -0.909510 -0.000000 -0.000000  1.633213
  0O   1pz       -0.074714 -0.000000  0.087920 -0.000000 -0.000000  0.075972
  0O   1px       -0.000000 -0.000000 -0.000000 -0.000000  0.095645 -0.000000
  0O   1py       -0.000000 -0.000000  0.000000  0.099313 -0.000000 -0.000000
  0O   2pz       -0.041663 -0.000000  0.095727  0.000000  0.000000 -0.336717
  0O   2px       -0.000000  0.000000  0.000000  0.000000 -0.729261 -0.000000
  0O   2py        0.000000 -0.000000  0.000000  0.043241 -0.000000  0.000000
  0O   3pz        1.113872 -0.000000  0.553187  0.000000  0.000000 -0.817207
  0O   3px        0.000000  0.000000  0.000000  0.000000 -1.052137 -0.000000
  0O   3py        0.000000 -0.000000 -0.000000  0.210654 -0.000000 -0.000000
  0O   1dz2       0.001289  0.000000  0.007575  0.000000  0.000000 -0.004404
  0O   1dxz       0.000000  0.000000  0.000000  0.000000 -0.004443  0.000000
  0O   1dyz       0.000000  0.000000  0.000000 -0.000062  0.000000  0.000000
  0O   1dx2y2     0.016330 -0.000000 -0.006701 -0.000000 -0.000000 -0.002485
  0O   1dxy       0.000000  0.008885  0.000000  0.000000  0.000000 -0.000000
  0O   2dz2      -0.016569 -0.000000  0.556585  0.000000  0.000000  0.258338
  0O   2dxz      -0.000000 -0.000000 -0.000000 -0.000000  1.074061  0.000000
  0O   2dyz      -0.000000 -0.000000 -0.000000  0.690172  0.000000  0.000000
  0O   2dx2y2    -0.041032  0.000000 -0.092468 -0.000000 -0.000000  1.071336
  0O   2dxy      -0.000000  0.534544  0.000000  0.000000 -0.000000 -0.000000
  1H   1s        -0.027735 -0.000000 -0.034440 -0.000000  0.354497  0.340012
  1H   2s         0.761584 -0.000000  0.537755  0.000000 -1.968719 -1.804669
  1H   3s         0.981784 -0.000000  0.053557 -0.000000  0.396138  0.184955
  1H   1pz        0.056276  0.000000 -0.326179  0.000000 -0.420879 -0.051519
  1H   1px        0.040157 -0.000000  0.249670  0.000000 -0.047462 -0.142295
  1H   1py       -0.000000 -0.423888 -0.000000 -0.375771 -0.000000 -0.000000
  2H   1s        -0.027735 -0.000000 -0.034440 -0.000000 -0.354497  0.340012
  2H   2s         0.761584 -0.000000  0.537755  0.000000  1.968719 -1.804669
  2H   3s         0.981784 -0.000000  0.053557 -0.000000 -0.396138  0.184955
  2H   1pz        0.056276  0.000000 -0.326179 -0.000000  0.420879 -0.051519
  2H   1px       -0.040157  0.000000 -0.249670  0.000000 -0.047462  0.142295
  2H   1py        0.000000  0.423888  0.000000 -0.375771  0.000000 -0.000000
                     18        19        20        21        22        23   
                   1.72447   2.02394   2.03938   2.11978   2.31989   2.44862
                   0.00000   0.00000   0.00000   0.00000   0.00000   0.00000
                  --------  --------  --------  --------  --------  --------
  0O   1s        -0.000000 -0.000000 -0.017022  0.000000  0.000000  0.031685
  0O   2s         0.000000 -0.000000 -0.065583  0.000000  0.000000  0.112439
  0O   3s        -0.000000  0.000000  0.695234 -0.000000 -0.000000 -0.897237
  0O   4s         0.000000 -0.000000 -2.075603  0.000000  0.000000  1.846830
  0O   5s         0.000000  0.000000  0.358319  0.000000 -0.000000  0.118078
  0O   1pz        0.000000 -0.000000 -0.471792 -0.000000 -0.000000 -0.356703
  0O   1px        0.188684 -0.000000 -0.000000 -0.000000 -0.470864  0.000000
  0O   1py       -0.000000 -0.301767  0.000000 -0.000000  0.000000 -0.000000
  0O   2pz       -0.000000  0.000000  1.067166 -0.000000  0.000000 -0.129343
  0O   2px       -0.489580 -0.000000 -0.000000  0.000000  2.118831 -0.000000
  0O   2py       -0.000000  0.143223 -0.000000  0.000000  0.000000  0.000000
  0O   3pz       -0.000000 -0.000000 -0.231584 -0.000000 -0.000000 -0.702283
  0O   3px        0.268344 -0.000000  0.000000  0.000000 -0.383954  0.000000
  0O   3py       -0.000000 -0.471560  0.000000 -0.000000  0.000000 -0.000000
  0O   1dz2      -0.000000  0.000000 -0.002486  0.000000  0.000000  0.006940
  0O   1dxz      -0.015360  0.000000 -0.000000  0.000000  0.036192 -0.000000
  0O   1dyz       0.000000 -0.009803  0.000000  0.000000 -0.000000 -0.000000
  0O   1dx2y2     0.000000  0.000000  0.001417 -0.000000  0.000000 -0.001744
  0O   1dxy       0.000000  0.000000 -0.000000 -0.012755 -0.000000 -0.000000
  0O   2dz2      -0.000000  0.000000  0.457373  0.000000  0.000000  0.854986
  0O   2dxz       0.614604 -0.000000  0.000000 -0.000000 -0.026686 -0.000000
  0O   2dyz       0.000000  0.855397 -0.000000  0.000000  0.000000 -0.000000
  0O   2dx2y2     0.000000 -0.000000 -0.006170  0.000000 -0.000000 -0.382603
  0O   2dxy       0.000000 -0.000000 -0.000000  1.095016 -0.000000 -0.000000
  1H   1s         0.215311 -0.000000 -0.706176  0.000000 -0.553868  0.432735
  1H   2s        -0.788271  0.000000  1.576483 -0.000000  1.824365 -1.198386
  1H   3s         0.455692 -0.000000 -0.504989 -0.000000 -0.785901  0.187746
  1H   1pz        0.459734  0.000000  0.553277  0.000000  0.705344  0.326636
  1H   1px       -0.592156  0.000000  0.293071  0.000000  0.712178 -0.778078
  1H   1py       -0.000000  0.751306 -0.000000  0.762652  0.000000 -0.000000
  2H   1s        -0.215311 -0.000000 -0.706176  0.000000  0.553868  0.432735
  2H   2s         0.788271  0.000000  1.576483 -0.000000 -1.824365 -1.198386
  2H   3s        -0.455692 -0.000000 -0.504989  0.000000  0.785901  0.187746
  2H   1pz       -0.459734  0.000000  0.553277 -0.000000 -0.705344  0.326636
  2H   1px       -0.592156 -0.000000 -0.293071  0.000000  0.712178  0.778078
  2H   1py        0.000000  0.751306 -0.000000 -0.762652  0.000000  0.000000
                     24        25        26        27        28        29   
                   2.56052   2.60331   2.61471   2.77714   3.63336   4.11630
                   0.00000   0.00000   0.00000   0.00000   0.00000   0.00000
                  --------  --------  --------  --------  --------  --------
  0O   1s        -0.000000 -0.000000 -0.029273  0.110267 -0.061727  0.000000
  0O   2s        -0.000000 -0.000000 -0.080337  0.363152 -0.247849  0.000000
  0O   3s         0.000000  0.000000  0.087564 -2.076774  2.648445 -0.000000
  0O   4s        -0.000000  0.000000  0.925425  2.244002 -5.749124  0.000000
  0O   5s         0.000000  0.000000  1.249297 -2.999841  0.671395 -0.000000
  0O   1pz       -0.000000 -0.000000 -0.850935 -0.439668 -0.529591 -0.000000
  0O   1px        0.894607  0.000000 -0.000000  0.000000  0.000000  0.821796
  0O   1py       -0.000000  1.169443 -0.000000  0.000000 -0.000000 -0.000000
  0O   2pz        0.000000  0.000000  0.375925  1.330097  2.442375 -0.000000
  0O   2px        0.217273  0.000000 -0.000000 -0.000000 -0.000000 -3.732400
  0O   2py        0.000000 -1.676378  0.000000 -0.000000 -0.000000 -0.000000
  0O   3pz       -0.000000 -0.000000 -0.675434  0.408956 -0.084380 -0.000000
  0O   3px        1.082860  0.000000 -0.000000  0.000000  0.000000  0.151105
  0O   3py       -0.000000  0.577776 -0.000000  0.000000 -0.000000 -0.000000
  0O   1dz2      -0.000000 -0.000000  0.001837 -0.006630 -0.011831 -0.000000
  0O   1dxz       0.040094  0.000000 -0.000000  0.000000 -0.000000 -0.009849
  0O   1dyz       0.000000 -0.005684  0.000000 -0.000000 -0.000000 -0.000000
  0O   1dx2y2    -0.000000 -0.000000 -0.020918  0.007534  0.054194 -0.000000
  0O   1dxy       0.000000  0.000000  0.000000 -0.000000  0.000000 -0.000000
  0O   2dz2      -0.000000 -0.000000 -0.431260 -0.370525 -0.101306 -0.000000
  0O   2dxz      -0.890910 -0.000000  0.000000 -0.000000  0.000000  1.925591
  0O   2dyz      -0.000000  0.232025 -0.000000  0.000000  0.000000  0.000000
  0O   2dx2y2     0.000000  0.000000  0.737190 -0.311082 -1.118698  0.000000
  0O   2dxy      -0.000000  0.000000 -0.000000  0.000000  0.000000  0.000000
  1H   1s         0.151349  0.000000 -0.019993  0.019572  0.819160 -1.210324
  1H   2s         1.177035 -0.000000 -1.155100  1.163004  1.640006 -1.609192
  1H   3s         0.322277 -0.000000 -0.103282  0.297373 -0.380680  0.406459
  1H   1pz        0.565173 -0.000000 -0.840194  0.093995  0.721632 -0.905140
  1H   1px        0.884927 -0.000000 -0.493804  0.749700  1.234674 -1.169340
  1H   1py       -0.000000  0.318180 -0.000000  0.000000  0.000000 -0.000000
  2H   1s        -0.151349  0.000000 -0.019993  0.019572  0.819160  1.210324
  2H   2s        -1.177035 -0.000000 -1.155100  1.163004  1.640006  1.609192
  2H   3s        -0.322277 -0.000000 -0.103282  0.297373 -0.380680 -0.406459
  2H   1pz       -0.565173 -0.000000 -0.840194  0.093995  0.721632  0.905140
  2H   1px        0.884927  0.000000  0.493804 -0.749700 -1.234674 -1.169340
  2H   1py        0.000000  0.318180 -0.000000  0.000000  0.000000 -0.000000
                     30        31        32        33        34        35   
                   6.25498   6.29040   6.31805   6.42053   6.51792  43.14896
                   0.00000   0.00000   0.00000   0.00000   0.00000   0.00000
                  --------  --------  --------  --------  --------  --------
  0O   1s        -0.000000  0.000000 -0.000777 -0.000858 -0.000000  1.389868
  0O   2s        -0.000000  0.000000  0.000214 -0.001111 -0.000000 -1.691567
  0O   3s         0.000000 -0.000000 -0.036724  0.017493  0.000000  1.535077
  0O   4s        -0.000000  0.000000  0.057192 -0.120987 -0.000000 -1.635532
  0O   5s         0.000000 -0.000000  0.507336  0.313491 -0.000000  0.752631
  0O   1pz       -0.000000 -0.000000  0.035084 -0.010895 -0.000000 -0.026716
  0O   1px       -0.000000 -0.000000  0.000000 -0.000000 -0.115117 -0.000000
  0O   1py       -0.011265 -0.000000 -0.000000  0.000000  0.000000  0.000000
  0O   2pz        0.000000  0.000000 -0.190187  0.080154 -0.000000  0.156186
  0O   2px       -0.000000 -0.000000  0.000000  0.000000  0.536521  0.000000
  0O   2py        0.061525  0.000000  0.000000  0.000000 -0.000000 -0.000000
  0O   3pz       -0.000000  0.000000 -0.228895 -0.081078  0.000000 -0.078295
  0O   3px       -0.000000 -0.000000  0.000000  0.000000  0.351380 -0.000000
  0O   3py        0.029391  0.000000 -0.000000  0.000000  0.000000  0.000000
  0O   1dz2       0.000000  0.000000 -0.922451  0.754104 -0.000000 -0.000409
  0O   1dxz       0.000000 -0.000000 -0.000000  0.000000  1.226865  0.000000
  0O   1dyz       1.173958  0.000000  0.000000  0.000000 -0.000000  0.000000
  0O   1dx2y2     0.000000  0.000000 -0.740932 -0.940852  0.000000  0.005365
  0O   1dxy      -0.000000  1.183124  0.000000 -0.000000  0.000000 -0.000000
  0O   2dz2      -0.000000 -0.000000  0.571328 -0.563489  0.000000  0.001497
  0O   2dxz      -0.000000  0.000000 -0.000000 -0.000000 -1.105623 -0.000000
  0O   2dyz      -0.658923 -0.000000 -0.000000 -0.000000  0.000000 -0.000000
  0O   2dx2y2    -0.000000 -0.000000  0.458142  0.653590 -0.000000 -0.067073
  0O   2dxy       0.000000 -0.723671 -0.000000 -0.000000 -0.000000 -0.000000
  1H   1s         0.000000 -0.000000 -0.034753 -0.047762  0.274887  0.057531
  1H   2s         0.000000  0.000000 -0.367483 -0.150435  0.517809  0.101276
  1H   3s        -0.000000  0.000000 -0.011433 -0.012700 -0.017775 -0.151012
  1H   1pz       -0.000000 -0.000000  0.064254 -0.154660  0.070366  0.047270
  1H   1px        0.000000  0.000000 -0.123585  0.151745  0.138172  0.064179
  1H   1py       -0.110999 -0.148021 -0.000000  0.000000  0.000000  0.000000
  2H   1s         0.000000  0.000000 -0.034753 -0.047762 -0.274887  0.057531
  2H   2s         0.000000  0.000000 -0.367483 -0.150435 -0.517809  0.101276
  2H   3s         0.000000  0.000000 -0.011433 -0.012700  0.017775 -0.151012
  2H   1pz       -0.000000 -0.000000  0.064254 -0.154660 -0.070366  0.047270
  2H   1px       -0.000000 -0.000000  0.123585 -0.151745  0.138172 -0.064179
  2H   1py       -0.110999  0.148021  0.000000 -0.000000  0.000000  0.000000
             **** ENERGY FILE WAS UPDATED (D:\hty\creat\code\github\pyORCA\Goble\..\Test\ORCA_cal\ORCA_structure\H2O_1\input.en.tmp) ****
Finished Guess after   0.1 sec
Maximum memory used throughout the entire GUESS-calculation: 5.4 MB


           ************************************************************
           *        Program running with 20 parallel MPI-processes    *
           *              working on a common directory               *
           ************************************************************

-------------------------------------------------------------------------------------------
                                      ORCA LEAN-SCF
                              memory conserving SCF solver
-------------------------------------------------------------------------------------------

----------------------------------------D-I-I-S--------------------------------------------
Iteration    Energy (Eh)           Delta-E    RMSDP     MaxDP     DIISErr   Damp  Time(sec)
-------------------------------------------------------------------------------------------
               ***  Starting incremental Fock matrix formation  ***
                              *** Initializing SOSCF ***
---------------------------------------S-O-S-C-F--------------------------------------
Iteration    Energy (Eh)           Delta-E    RMSDP     MaxDP     MaxGrad    Time(sec)
--------------------------------------------------------------------------------------
    1    -76.4245484327891802     0.00e+00  5.33e-08  3.76e-07  1.25e-07     0.1

                         ----------------------------
                         !        ITERATION     0   !
                         ----------------------------
   Total Energy        :     -76.424548432789 Eh
   Energy Change       :      76.424548432789 Eh
   MAX-DP              :       0.000000376308
   RMS-DP              :       0.000000053298
   Orbital gradient    :       0.000000124601
   Orbital Rotation    :       0.000000124601
   alpha HOMO          :      -0.3105 Eh
   alpha LUMO          :       0.0157 Eh
   Int. Num. El.       :    10.00000244 (UP=    5.00000122 DN=    5.00000122)
   Exchange            :    -7.11015326 Eh
   Correlation         :    -0.40150902 Eh

               *** Restarting incremental Fock matrix formation ***
    2    -76.4245484328051816    -1.60e-11  1.69e-08  1.33e-07  2.18e-07     0.1
                  *** Gradient check signals convergence ***

                         ----------------------------
                         !        ITERATION     1   !
                         ----------------------------
   Total Energy        :     -76.424548432805 Eh
   Energy Change       :       0.000000000016 Eh
   MAX-DP              :       0.000000132815
   RMS-DP              :       0.000000016940
   Orbital gradient    :       0.000000217881
   Orbital Rotation    :       0.000000120275
   alpha HOMO          :      -0.3105 Eh
   alpha LUMO          :       0.0157 Eh
   Int. Num. El.       :    10.00000244 (UP=    5.00000122 DN=    5.00000122)
   Exchange            :    -7.11015354 Eh
   Correlation         :    -0.40150903 Eh


               *****************************************************
               *                     SUCCESS                       *
               *           SCF CONVERGED AFTER   2 CYCLES          *
               *****************************************************

Recomputing exchange energy using gridx3       ... done (    0.021 sec)
Old exchange energy                            :     -1.784122952 Eh
New exchange energy                            :     -1.784119282 Eh
Exchange energy change after final integration :      0.000003670 Eh
Total energy after final integration           :    -76.424544762 Eh
             **** ENERGY FILE WAS UPDATED (D:\hty\creat\code\github\pyORCA\Goble\..\Test\ORCA_cal\ORCA_structure\H2O_1\input.en.tmp) ****

----------------
TOTAL SCF ENERGY
----------------

Total Energy       :        -76.42454476239470 Eh           -2079.61759 eV

Components:
Nuclear Repulsion  :          9.06345926977332 Eh             246.62927 eV
Electronic Energy  :        -85.48800770257850 Eh           -2326.24695 eV
One Electron Energy:       -122.88301394167321 Eh           -3343.81681 eV
Two Electron Energy:         37.39500623909471 Eh            1017.56985 eV

Virial components:
Potential Energy   :       -152.55927464343233 Eh           -4151.34891 eV
Kinetic Energy     :         76.13472988103763 Eh            2071.73132 eV
Virial Ratio       :          2.00380660549804

DFT components:
N(Alpha)           :        5.000001218302 electrons
N(Beta)            :        5.000001218302 electrons
N(Total)           :       10.000002436603 electrons
E(X)               :       -7.110153538118 Eh       
E(C)               :       -0.401509031091 Eh       
E(XC)              :       -7.511662569208 Eh       

---------------
SCF CONVERGENCE
---------------

  Last Energy change         ...    1.6001e-11  Tolerance :   1.0000e-08
  Last MAX-Density change    ...    1.3281e-07  Tolerance :   1.0000e-07
  Last RMS-Density change    ...    1.6940e-08  Tolerance :   5.0000e-09
  Last DIIS Error            ...    2.0452e-06  Tolerance :   5.0000e-07
  Last Orbital Gradient      ...    2.1788e-07  Tolerance :   1.0000e-05
  Last Orbital Rotation      ...    1.2028e-07  Tolerance :   1.0000e-05


----------------
ORBITAL ENERGIES
----------------

  NO   OCC          E(Eh)            E(eV) 
   0   2.0000     -19.122954      -520.3620 
   1   2.0000      -1.004772       -27.3412 
   2   2.0000      -0.537106       -14.6154 
   3   2.0000      -0.378897       -10.3103 
   4   2.0000      -0.310525        -8.4498 
   5   0.0000       0.015688         0.4269 
   6   0.0000       0.089811         2.4439 
   7   0.0000       0.365524         9.9464 
   8   0.0000       0.396277        10.7833 
   9   0.0000       0.428764        11.6673 
  10   0.0000       0.433387        11.7930 
  11   0.0000       0.568588        15.4721 
  12   0.0000       0.595178        16.1956 
  13   0.0000       1.179177        32.0870 
  14   0.0000       1.200157        32.6579 
  15   0.0000       1.311078        35.6763 
*Only the first 10 virtual orbitals were printed.
------------------
MOLECULAR ORBITALS (RHF, ROHF)
------------------
                      0         1         2         3         4         5   
                 -19.12295  -1.00477  -0.53711  -0.37890  -0.31052   0.01569
                   2.00000   2.00000   2.00000   2.00000   2.00000   0.00000
                  --------  --------  --------  --------  --------  --------
  0O   1s         0.435062 -0.098113  0.000000  0.035396  0.000000  0.034192
  0O   2s         0.639786 -0.230869  0.000000  0.084468  0.000000  0.086083
  0O   3s         0.033814  0.341467  0.000000 -0.129792 -0.000000 -0.194024
  0O   4s        -0.021163  0.426707 -0.000000 -0.194435 -0.000000  0.031004
  0O   5s         0.009255  0.155357  0.000000 -0.223290 -0.000000 -1.168798
  0O   1pz       -0.001691 -0.082165  0.000000 -0.420779 -0.000000  0.159298
  0O   1px        0.000000  0.000000  0.383446  0.000000  0.000000 -0.000000
  0O   1py        0.000000  0.000000 -0.000000 -0.000000  0.476643 -0.000000
  0O   2pz        0.002340 -0.062506  0.000000 -0.320699 -0.000000  0.113923
  0O   2px       -0.000000  0.000000  0.285774  0.000000 -0.000000 -0.000000
  0O   2py       -0.000000 -0.000000  0.000000 -0.000000  0.381759 -0.000000
  0O   3pz       -0.001162 -0.009303  0.000000 -0.246654 -0.000000  0.323093
  0O   3px        0.000000  0.000000  0.117761  0.000000 -0.000000 -0.000000
  0O   3py       -0.000000  0.000000 -0.000000 -0.000000  0.340202 -0.000000
  0O   1dz2       0.000012  0.000812  0.000000  0.004135 -0.000000 -0.001700
  0O   1dxz      -0.000000  0.000000 -0.012317  0.000000 -0.000000  0.000000
  0O   1dyz      -0.000000 -0.000000  0.000000 -0.000000 -0.004249 -0.000000
  0O   1dx2y2     0.000174  0.004978 -0.000000  0.002908  0.000000  0.001964
  0O   1dxy       0.000000 -0.000000  0.000000 -0.000000  0.000000 -0.000000
  0O   2dz2      -0.000027  0.003386  0.000000  0.025466  0.000000 -0.009040
  0O   2dxz       0.000000 -0.000000 -0.019119 -0.000000  0.000000 -0.000000
  0O   2dyz       0.000000  0.000000 -0.000000  0.000000 -0.024771  0.000000
  0O   2dx2y2    -0.000705  0.007080 -0.000000 -0.003419 -0.000000  0.007189
  0O   2dxy      -0.000000  0.000000 -0.000000  0.000000  0.000000 -0.000000
  1H   1s         0.000612  0.094366 -0.150921  0.085748  0.000000  0.042397
  1H   2s         0.001125  0.077566 -0.192155  0.124182  0.000000  0.098332
  1H   3s        -0.001840  0.006521 -0.063927  0.045357  0.000000  0.935654
  1H   1pz        0.000423  0.010654 -0.019755 -0.009036 -0.000000 -0.016506
  1H   1px        0.000644  0.019024 -0.012981  0.018775 -0.000000 -0.028896
  1H   1py        0.000000  0.000000 -0.000000 -0.000000  0.026780 -0.000000
  2H   1s         0.000612  0.094366  0.150921  0.085748  0.000000  0.042397
  2H   2s         0.001125  0.077566  0.192155  0.124182  0.000000  0.098332
  2H   3s        -0.001840  0.006521  0.063927  0.045357 -0.000000  0.935654
  2H   1pz        0.000423  0.010654  0.019755 -0.009036  0.000000 -0.016506
  2H   1px       -0.000644 -0.019024 -0.012981 -0.018775 -0.000000  0.028896
  2H   1py        0.000000 -0.000000  0.000000 -0.000000  0.026780 -0.000000
                      6         7         8         9        10        11   
                   0.08981   0.36552   0.39628   0.42876   0.43339   0.56859
                   0.00000   0.00000   0.00000   0.00000   0.00000   0.00000
                  --------  --------  --------  --------  --------  --------
  0O   1s        -0.000000  0.000000 -0.034313 -0.000000  0.002216 -0.000000
  0O   2s        -0.000000  0.000000 -0.076299 -0.000000  0.003501 -0.000000
  0O   3s         0.000000  0.000000 -0.001711  0.000000  0.004382 -0.000000
  0O   4s        -0.000000 -0.000000  0.744088  0.000000 -0.046589  0.000000
  0O   5s         0.000000 -0.000000  0.589109 -0.000000  0.107876 -0.000000
  0O   1pz       -0.000000  0.000000 -0.007303  0.000000 -0.338122 -0.000000
  0O   1px       -0.254217 -0.123658 -0.000000 -0.000000 -0.000000  0.353006
  0O   1py        0.000000 -0.000000  0.000000 -0.318545 -0.000000 -0.000000
  0O   2pz       -0.000000  0.000000 -0.066413  0.000000 -0.735530  0.000000
  0O   2px       -0.120694 -0.345118 -0.000000 -0.000000 -0.000000  0.752620
  0O   2py        0.000000 -0.000000  0.000000 -0.701548 -0.000000 -0.000000
  0O   3pz       -0.000000  0.000000 -1.162187 -0.000000  1.004864  0.000000
  0O   3px       -0.694553 -1.247140 -0.000000  0.000000 -0.000000 -2.074583
  0O   3py        0.000000 -0.000000 -0.000000  1.233072  0.000000 -0.000000
  0O   1dz2      -0.000000 -0.000000 -0.001441 -0.000000  0.007662 -0.000000
  0O   1dxz      -0.001232 -0.031582 -0.000000 -0.000000 -0.000000 -0.011138
  0O   1dyz      -0.000000 -0.000000 -0.000000  0.006434 -0.000000 -0.000000
  0O   1dx2y2     0.000000  0.000000 -0.020622  0.000000 -0.005183  0.000000
  0O   1dxy      -0.000000 -0.000000  0.000000 -0.000000 -0.000000  0.000000
  0O   2dz2       0.000000  0.000000  0.026066  0.000000 -0.001759 -0.000000
  0O   2dxz      -0.017748  0.112758  0.000000  0.000000  0.000000  0.056751
  0O   2dyz      -0.000000 -0.000000  0.000000 -0.007167  0.000000  0.000000
  0O   2dx2y2    -0.000000 -0.000000  0.046725  0.000000 -0.008235 -0.000000
  0O   2dxy       0.000000  0.000000  0.000000 -0.000000  0.000000  0.000000
  1H   1s        -0.032537 -0.116322 -0.101654  0.000000 -0.061740  0.062148
  1H   2s        -0.026336 -1.461094 -1.521519  0.000000 -0.459407  0.067426
  1H   3s        -1.599585  0.510252  0.504785 -0.000000  0.444220 -1.594408
  1H   1pz        0.030448 -0.028665 -0.059670 -0.000000 -0.013979 -0.027122
  1H   1px        0.034299 -0.087201 -0.046156 -0.000000  0.009931 -0.033768
  1H   1py        0.000000  0.000000 -0.000000 -0.003892 -0.000000 -0.000000
  2H   1s         0.032537  0.116322 -0.101654  0.000000 -0.061740 -0.062148
  2H   2s         0.026336  1.461094 -1.521519  0.000000 -0.459407 -0.067426
  2H   3s         1.599585 -0.510252  0.504785 -0.000000  0.444220  1.594408
  2H   1pz       -0.030448  0.028665 -0.059670  0.000000 -0.013979  0.027122
  2H   1px        0.034299 -0.087201  0.046156 -0.000000 -0.009931 -0.033768
  2H   1py        0.000000 -0.000000  0.000000 -0.003892  0.000000 -0.000000
                     12        13        14        15        16        17   
                   0.59518   1.17918   1.20016   1.31108   1.53720   1.62963
                   0.00000   0.00000   0.00000   0.00000   0.00000   0.00000
                  --------  --------  --------  --------  --------  --------
  0O   1s        -0.053113 -0.000000  0.003751  0.000000 -0.000000 -0.014859
  0O   2s        -0.109754 -0.000000  0.008856  0.000000 -0.000000 -0.047256
  0O   3s        -0.111486  0.000000 -0.012656 -0.000000  0.000000  0.305929
  0O   4s         2.317475  0.000000 -0.174421  0.000000 -0.000000 -0.425441
  0O   5s        -4.688515 -0.000000  0.909512  0.000000 -0.000000 -1.633213
  0O   1pz       -0.074714  0.000000 -0.087920  0.000000 -0.000000 -0.075973
  0O   1px       -0.000000  0.000000  0.000000 -0.000000  0.095646  0.000000
  0O   1py       -0.000000  0.000000  0.000000 -0.099313 -0.000000  0.000000
  0O   2pz       -0.041661  0.000000 -0.095727 -0.000000  0.000000  0.336717
  0O   2px       -0.000000 -0.000000 -0.000000 -0.000000 -0.729261 -0.000000
  0O   2py        0.000000 -0.000000 -0.000000 -0.043241 -0.000000 -0.000000
  0O   3pz        1.113868  0.000000 -0.553187 -0.000000  0.000000  0.817207
  0O   3px        0.000000 -0.000000 -0.000000 -0.000000 -1.052137  0.000000
  0O   3py       -0.000000  0.000000  0.000000 -0.210655 -0.000000  0.000000
  0O   1dz2       0.001289 -0.000000 -0.007575 -0.000000  0.000000  0.004404
  0O   1dxz       0.000000 -0.000000 -0.000000 -0.000000 -0.004443 -0.000000
  0O   1dyz       0.000000 -0.000000 -0.000000  0.000062 -0.000000 -0.000000
  0O   1dx2y2     0.016330  0.000000  0.006701  0.000000 -0.000000  0.002485
  0O   1dxy       0.000000 -0.008885 -0.000000 -0.000000  0.000000 -0.000000
  0O   2dz2      -0.016569  0.000000 -0.556584 -0.000000  0.000000 -0.258338
  0O   2dxz      -0.000000  0.000000  0.000000  0.000000  1.074059 -0.000000
  0O   2dyz      -0.000000  0.000000  0.000000 -0.690172  0.000000 -0.000000
  0O   2dx2y2    -0.041032 -0.000000  0.092468  0.000000 -0.000000 -1.071335
  0O   2dxy      -0.000000 -0.534543 -0.000000 -0.000000 -0.000000  0.000000
  1H   1s        -0.027734  0.000000  0.034440  0.000000  0.354497 -0.340012
  1H   2s         0.761584  0.000000 -0.537756 -0.000000 -1.968718  1.804669
  1H   3s         0.981783  0.000000 -0.053557  0.000000  0.396137 -0.184956
  1H   1pz        0.056277 -0.000000  0.326179 -0.000000 -0.420880  0.051519
  1H   1px        0.040157  0.000000 -0.249670 -0.000000 -0.047461  0.142295
  1H   1py        0.000000  0.423888  0.000000  0.375772 -0.000000  0.000000
  2H   1s        -0.027734  0.000000  0.034440  0.000000 -0.354497 -0.340012
  2H   2s         0.761584  0.000000 -0.537756 -0.000000  1.968718  1.804669
  2H   3s         0.981783  0.000000 -0.053557  0.000000 -0.396137 -0.184956
  2H   1pz        0.056277 -0.000000  0.326179  0.000000  0.420880  0.051519
  2H   1px       -0.040157 -0.000000  0.249670 -0.000000 -0.047461 -0.142295
  2H   1py        0.000000 -0.423888 -0.000000  0.375772  0.000000  0.000000
                     18        19        20        21        22        23   
                   1.72447   2.02394   2.03938   2.11978   2.31989   2.44862
                   0.00000   0.00000   0.00000   0.00000   0.00000   0.00000
                  --------  --------  --------  --------  --------  --------
  0O   1s        -0.000000  0.000000  0.017022  0.000000 -0.000000  0.031685
  0O   2s        -0.000000  0.000000  0.065583  0.000000 -0.000000  0.112438
  0O   3s         0.000000 -0.000000 -0.695235 -0.000000  0.000000 -0.897234
  0O   4s        -0.000000  0.000000  2.075604  0.000000 -0.000000  1.846827
  0O   5s        -0.000000 -0.000000 -0.358321  0.000000 -0.000000  0.118081
  0O   1pz       -0.000000  0.000000  0.471791 -0.000000  0.000000 -0.356703
  0O   1px       -0.188685  0.000000 -0.000000 -0.000000  0.470863  0.000000
  0O   1py        0.000000  0.301767 -0.000000 -0.000000 -0.000000 -0.000000
  0O   2pz        0.000000 -0.000000 -1.067166 -0.000000 -0.000000 -0.129344
  0O   2px        0.489581  0.000000  0.000000  0.000000 -2.118831 -0.000000
  0O   2py        0.000000 -0.143222  0.000000  0.000000 -0.000000  0.000000
  0O   3pz        0.000000  0.000000  0.231584 -0.000000  0.000000 -0.702284
  0O   3px       -0.268344 -0.000000 -0.000000  0.000000  0.383953  0.000000
  0O   3py        0.000000  0.471560 -0.000000 -0.000000 -0.000000 -0.000000
  0O   1dz2       0.000000 -0.000000  0.002486  0.000000 -0.000000  0.006940
  0O   1dxz       0.015360  0.000000  0.000000  0.000000 -0.036192 -0.000000
  0O   1dyz      -0.000000  0.009803 -0.000000  0.000000 -0.000000 -0.000000
  0O   1dx2y2    -0.000000 -0.000000 -0.001417 -0.000000  0.000000 -0.001744
  0O   1dxy      -0.000000  0.000000  0.000000 -0.012755  0.000000 -0.000000
  0O   2dz2       0.000000 -0.000000 -0.457373  0.000000 -0.000000  0.854987
  0O   2dxz      -0.614605  0.000000  0.000000 -0.000000  0.026686  0.000000
  0O   2dyz      -0.000000 -0.855397  0.000000  0.000000 -0.000000 -0.000000
  0O   2dx2y2    -0.000000  0.000000  0.006169  0.000000  0.000000 -0.382603
  0O   2dxy      -0.000000  0.000000 -0.000000  1.095016  0.000000 -0.000000
  1H   1s        -0.215312  0.000000  0.706176  0.000000  0.553868  0.432735
  1H   2s         0.788273 -0.000000 -1.576482 -0.000000 -1.824366 -1.198386
  1H   3s        -0.455693  0.000000  0.504990 -0.000000  0.785900  0.187745
  1H   1pz       -0.459734 -0.000000 -0.553277  0.000000 -0.705345  0.326636
  1H   1px        0.592156 -0.000000 -0.293071  0.000000 -0.712178 -0.778078
  1H   1py        0.000000 -0.751306  0.000000  0.762652 -0.000000 -0.000000
  2H   1s         0.215312  0.000000  0.706176  0.000000 -0.553868  0.432735
  2H   2s        -0.788273 -0.000000 -1.576482 -0.000000  1.824366 -1.198386
  2H   3s         0.455693  0.000000  0.504990  0.000000 -0.785900  0.187745
  2H   1pz        0.459734 -0.000000 -0.553277 -0.000000  0.705345  0.326636
  2H   1px        0.592156  0.000000  0.293071  0.000000 -0.712178  0.778078
  2H   1py       -0.000000 -0.751306  0.000000 -0.762652 -0.000000 -0.000000
                     24        25        26        27        28        29   
                   2.56052   2.60331   2.61471   2.77714   3.63336   4.11630
                   0.00000   0.00000   0.00000   0.00000   0.00000   0.00000
                  --------  --------  --------  --------  --------  --------
  0O   1s         0.000000 -0.000000  0.029273  0.110267 -0.061727  0.000000
  0O   2s         0.000000 -0.000000  0.080338  0.363152 -0.247849  0.000000
  0O   3s        -0.000000  0.000000 -0.087570 -2.076774  2.648445 -0.000000
  0O   4s         0.000000  0.000000 -0.925417  2.244005 -5.749124  0.000000
  0O   5s        -0.000000  0.000000 -1.249306 -2.999838  0.671394 -0.000000
  0O   1pz        0.000000 -0.000000  0.850934 -0.439670 -0.529591 -0.000000
  0O   1px       -0.894607  0.000000  0.000000  0.000000  0.000000  0.821796
  0O   1py        0.000000  1.169443  0.000000  0.000000 -0.000000 -0.000000
  0O   2pz        0.000000  0.000000 -0.375922  1.330098  2.442375 -0.000000
  0O   2px       -0.217271  0.000000  0.000000  0.000000 -0.000000 -3.732400
  0O   2py       -0.000000 -1.676378 -0.000000 -0.000000  0.000000 -0.000000
  0O   3pz        0.000000 -0.000000  0.675435  0.408953 -0.084380 -0.000000
  0O   3px       -1.082860  0.000000  0.000000  0.000000  0.000000  0.151105
  0O   3py        0.000000  0.577776  0.000000  0.000000 -0.000000 -0.000000
  0O   1dz2       0.000000 -0.000000 -0.001838 -0.006629 -0.011831 -0.000000
  0O   1dxz      -0.040094  0.000000  0.000000  0.000000 -0.000000 -0.009849
  0O   1dyz      -0.000000 -0.005684  0.000000 -0.000000 -0.000000 -0.000000
  0O   1dx2y2     0.000000 -0.000000  0.020918  0.007534  0.054194 -0.000000
  0O   1dxy      -0.000000  0.000000 -0.000000 -0.000000  0.000000  0.000000
  0O   2dz2       0.000000  0.000000  0.431259 -0.370525 -0.101306 -0.000000
  0O   2dxz       0.890910 -0.000000 -0.000000 -0.000000  0.000000  1.925591
  0O   2dyz       0.000000  0.232025  0.000000  0.000000  0.000000  0.000000
  0O   2dx2y2    -0.000000  0.000000 -0.737190 -0.311081 -1.118698  0.000000
  0O   2dxy       0.000000  0.000000  0.000000  0.000000  0.000000  0.000000
  1H   1s        -0.151349  0.000000  0.019992  0.019572  0.819160 -1.210324
  1H   2s        -1.177034 -0.000000  1.155103  1.163000  1.640006 -1.609192
  1H   3s        -0.322278 -0.000000  0.103282  0.297373 -0.380680  0.406459
  1H   1pz       -0.565173 -0.000000  0.840194  0.093994  0.721632 -0.905140
  1H   1px       -0.884926 -0.000000  0.493805  0.749698  1.234674 -1.169340
  1H   1py        0.000000  0.318180  0.000000  0.000000 -0.000000 -0.000000
  2H   1s         0.151349  0.000000  0.019992  0.019572  0.819160  1.210324
  2H   2s         1.177034 -0.000000  1.155103  1.163000  1.640006  1.609192
  2H   3s         0.322278 -0.000000  0.103282  0.297373 -0.380680 -0.406459
  2H   1pz        0.565173 -0.000000  0.840194  0.093994  0.721632  0.905140
  2H   1px       -0.884926  0.000000 -0.493805 -0.749698 -1.234674 -1.169340
  2H   1py       -0.000000  0.318180  0.000000  0.000000 -0.000000 -0.000000
                     30        31        32        33        34        35   
                   6.25498   6.29040   6.31805   6.42053   6.51792  43.14896
                   0.00000   0.00000   0.00000   0.00000   0.00000   0.00000
                  --------  --------  --------  --------  --------  --------
  0O   1s         0.000000 -0.000000 -0.000777  0.000858 -0.000000  1.389868
  0O   2s         0.000000 -0.000000  0.000214  0.001111  0.000000 -1.691567
  0O   3s        -0.000000 -0.000000 -0.036724 -0.017493 -0.000000  1.535077
  0O   4s         0.000000  0.000000  0.057192  0.120987 -0.000000 -1.635532
  0O   5s        -0.000000  0.000000  0.507336 -0.313491  0.000000  0.752631
  0O   1pz        0.000000  0.000000  0.035083  0.010895  0.000000 -0.026716
  0O   1px        0.000000  0.000000  0.000000  0.000000  0.115117 -0.000000
  0O   1py        0.011264  0.000000 -0.000000 -0.000000 -0.000000  0.000000
  0O   2pz       -0.000000 -0.000000 -0.190187 -0.080154  0.000000  0.156186
  0O   2px        0.000000  0.000000  0.000000 -0.000000 -0.536521  0.000000
  0O   2py       -0.061525 -0.000000 -0.000000 -0.000000 -0.000000  0.000000
  0O   3pz       -0.000000 -0.000000 -0.228895  0.081078 -0.000000 -0.078295
  0O   3px        0.000000  0.000000  0.000000 -0.000000 -0.351380 -0.000000
  0O   3py       -0.029391 -0.000000 -0.000000 -0.000000 -0.000000  0.000000
  0O   1dz2      -0.000000 -0.000000 -0.922451 -0.754104  0.000000 -0.000409
  0O   1dxz      -0.000000  0.000000 -0.000000 -0.000000 -1.226865  0.000000
  0O   1dyz      -1.173958 -0.000000  0.000000 -0.000000  0.000000  0.000000
  0O   1dx2y2    -0.000000 -0.000000 -0.740932  0.940852 -0.000000  0.005365
  0O   1dxy       0.000000 -1.183124  0.000000  0.000000 -0.000000  0.000000
  0O   2dz2       0.000000  0.000000  0.571328  0.563489 -0.000000  0.001497
  0O   2dxz       0.000000 -0.000000  0.000000  0.000000  1.105623 -0.000000
  0O   2dyz       0.658923  0.000000 -0.000000  0.000000 -0.000000 -0.000000
  0O   2dx2y2     0.000000  0.000000  0.458142 -0.653590  0.000000 -0.067073
  0O   2dxy      -0.000000  0.723672 -0.000000  0.000000  0.000000 -0.000000
  1H   1s        -0.000000  0.000000 -0.034753  0.047762 -0.274887  0.057531
  1H   2s        -0.000000 -0.000000 -0.367483  0.150435 -0.517809  0.101276
  1H   3s        -0.000000  0.000000 -0.011433  0.012700  0.017775 -0.151012
  1H   1pz        0.000000  0.000000  0.064254  0.154660 -0.070366  0.047270
  1H   1px       -0.000000 -0.000000 -0.123585 -0.151745 -0.138172  0.064179
  1H   1py        0.110999  0.148021 -0.000000 -0.000000 -0.000000  0.000000
  2H   1s        -0.000000 -0.000000 -0.034753  0.047762  0.274887  0.057531
  2H   2s        -0.000000 -0.000000 -0.367483  0.150435  0.517809  0.101276
  2H   3s        -0.000000 -0.000000 -0.011433  0.012700 -0.017775 -0.151012
  2H   1pz       -0.000000  0.000000  0.064254  0.154660  0.070366  0.047270
  2H   1px        0.000000  0.000000  0.123585  0.151745 -0.138172 -0.064179
  2H   1py        0.110999 -0.148021 -0.000000  0.000000 -0.000000  0.000000


-------
DENSITY
-------
                  0          1          2          3          4          5    
      0       0.400316   0.607976  -0.046770  -0.115909  -0.038239  -0.015136
      1       0.607976   0.939523  -0.136327  -0.256953  -0.097613  -0.035310
      2      -0.046770  -0.136327   0.269178   0.340454   0.164687   0.053000
      3      -0.115909  -0.256953   0.340454   0.440663   0.219023   0.093579
      4      -0.038239  -0.097613   0.164687   0.219023   0.148160   0.162351
      5      -0.015136  -0.035310   0.053000   0.093579   0.162351   0.367618
      6      -0.000000  -0.000000   0.000000  -0.000000   0.000000  -0.000000
      7       0.000000   0.000000   0.000000  -0.000000  -0.000000   0.000000
      8      -0.008401  -0.022321   0.040719   0.071268   0.123840   0.280151
      9       0.000000   0.000000  -0.000000  -0.000000  -0.000000  -0.000000
     10       0.000000   0.000000   0.000000  -0.000000  -0.000000   0.000000
     11      -0.016647  -0.038860   0.057595   0.088026   0.107239   0.209106
     12       0.000000   0.000000  -0.000000  -0.000000  -0.000000  -0.000000
     13       0.000000   0.000000   0.000000  -0.000000  -0.000000   0.000000
     14       0.000144   0.000339  -0.000518  -0.000915  -0.001594  -0.003613
     15      -0.000000  -0.000000   0.000000   0.000000  -0.000000  -0.000000
     16       0.000000   0.000000  -0.000000  -0.000000   0.000000   0.000000
     17      -0.000620  -0.001585   0.002657   0.003110   0.000251  -0.003266
     18       0.000000   0.000000  -0.000000  -0.000000   0.000000   0.000000
     19       0.001115   0.002705  -0.004300  -0.007012  -0.010321  -0.021987
     20      -0.000000  -0.000000   0.000000   0.000000   0.000000   0.000000
     21      -0.000000  -0.000000   0.000000   0.000000   0.000000  -0.000000
     22      -0.002245  -0.004749   0.005675   0.007402   0.003714   0.001716
     23      -0.000000  -0.000000   0.000000   0.000000  -0.000000  -0.000000
     24      -0.011914  -0.028303   0.042228   0.047163  -0.008961  -0.087671
     25      -0.005451  -0.013397   0.020813   0.017858  -0.031336  -0.117257
     26       0.000330   0.002296  -0.007445  -0.011995  -0.018263  -0.039236
     27      -0.002362  -0.005905   0.009650   0.012588   0.007354   0.005852
     28      -0.001844  -0.004789   0.008162   0.008907  -0.002462  -0.018929
     29       0.000000   0.000000   0.000000  -0.000000  -0.000000   0.000000
     30      -0.011914  -0.028303   0.042228   0.047163  -0.008961  -0.087671
     31      -0.005451  -0.013397   0.020813   0.017858  -0.031336  -0.117257
     32       0.000330   0.002296  -0.007445  -0.011995  -0.018263  -0.039236
     33      -0.002362  -0.005905   0.009650   0.012588   0.007354   0.005852
     34       0.001844   0.004789  -0.008162  -0.008907   0.002462   0.018929
     35       0.000000   0.000000  -0.000000  -0.000000  -0.000000   0.000000
                  6          7          8          9         10         11    
      0      -0.000000   0.000000  -0.008401   0.000000   0.000000  -0.016647
      1      -0.000000   0.000000  -0.022321   0.000000   0.000000  -0.038860
      2       0.000000   0.000000   0.040719  -0.000000   0.000000   0.057595
      3      -0.000000  -0.000000   0.071268  -0.000000  -0.000000   0.088026
      4       0.000000  -0.000000   0.123840  -0.000000  -0.000000   0.107239
      5      -0.000000   0.000000   0.280151  -0.000000   0.000000   0.209106
      6       0.294062   0.000000   0.000000   0.219158   0.000000   0.000000
      7       0.000000   0.454376   0.000000  -0.000000   0.363926   0.000000
      8       0.000000   0.000000   0.213521  -0.000000   0.000000   0.159361
      9       0.219158  -0.000000  -0.000000   0.163333  -0.000000  -0.000000
     10       0.000000   0.363926   0.000000  -0.000000   0.291481   0.000000
     11       0.000000   0.000000   0.159361  -0.000000   0.000000   0.121852
[...]
     26      -0.000000   0.002354   0.002444  -0.000000  -0.000215   0.000000
     27      -0.000000  -0.000388   0.000755   0.000000   0.000212   0.000000
     28      -0.000000   0.001085   0.000496   0.000000   0.000140   0.000000
     29       0.000000   0.000000   0.000000  -0.001327  -0.000000   0.000000
     30       0.000000   0.005006  -0.005771  -0.000000   0.000749  -0.000000
     31       0.000000   0.006850  -0.007348  -0.000000   0.000248  -0.000000
     32       0.000000   0.002354  -0.002444   0.000000  -0.000215  -0.000000
     33       0.000000  -0.000388  -0.000755  -0.000000   0.000212  -0.000000
     34      -0.000000  -0.001085   0.000496   0.000000  -0.000140  -0.000000
     35       0.000000   0.000000   0.000000  -0.001327  -0.000000   0.000000
                 24         25         26         27         28         29    
      0      -0.011914  -0.005451   0.000330  -0.002362  -0.001844   0.000000
      1      -0.028303  -0.013397   0.002296  -0.005905  -0.004789   0.000000
      2       0.042228   0.020813  -0.007445   0.009650   0.008162   0.000000
      3       0.047163   0.017858  -0.011995   0.012588   0.008907  -0.000000
      4      -0.008961  -0.031336  -0.018263   0.007354  -0.002462  -0.000000
      5      -0.087671  -0.117257  -0.039236   0.005852  -0.018929   0.000000
      6      -0.115740  -0.147362  -0.049025  -0.015150  -0.009955  -0.000000
      7       0.000000  -0.000000   0.000000  -0.000000  -0.000000   0.025529
      8      -0.066792  -0.089342  -0.029916   0.004466  -0.014418   0.000000
      9      -0.086258  -0.109826  -0.036537  -0.011291  -0.007419  -0.000000
     10       0.000000  -0.000000   0.000000  -0.000000  -0.000000   0.020447
     11      -0.044057  -0.062706  -0.022492   0.004258  -0.009618   0.000000
     12      -0.035545  -0.045257  -0.015056  -0.004653  -0.003057  -0.000000
     13       0.000000  -0.000000   0.000000  -0.000000  -0.000000   0.018221
     14       0.000862   0.001153   0.000386  -0.000057   0.000186  -0.000000
     15       0.003718   0.004733   0.001575   0.000487   0.000320  -0.000000
     16      -0.000000  -0.000000  -0.000000  -0.000000  -0.000000  -0.000228
     17       0.001438   0.001495   0.000328   0.000054   0.000299   0.000000
     18      -0.000000  -0.000000  -0.000000  -0.000000  -0.000000   0.000000
     19       0.005006   0.006850   0.002354  -0.000388   0.001085   0.000000
     20       0.005771   0.007348   0.002444   0.000755   0.000496   0.000000
     21       0.000000   0.000000  -0.000000   0.000000   0.000000  -0.001327
     22       0.000749   0.000248  -0.000215   0.000212   0.000140  -0.000000
     23       0.000000   0.000000   0.000000   0.000000   0.000000   0.000000
     24       0.078070   0.093938   0.028303   0.006424   0.010729   0.000000
     25       0.093938   0.116725   0.036840   0.007001   0.012605  -0.000000
     26       0.028303   0.036840   0.012380   0.001843   0.003609   0.000000
     27       0.006424   0.007001   0.001843   0.001171   0.000579  -0.000000
     28       0.010729   0.012605   0.003609   0.000579   0.001767  -0.000000
     29       0.000000  -0.000000   0.000000  -0.000000  -0.000000   0.001434
     30      -0.013038  -0.022063  -0.010289  -0.005501   0.002893  -0.000000
     31      -0.022063  -0.030969  -0.012295  -0.008183   0.002627   0.000000
     32      -0.010289  -0.012295  -0.003967  -0.003208   0.000289  -0.000000
     33      -0.005501  -0.008183  -0.003208  -0.000390  -0.000446   0.000000
     34      -0.002893  -0.002627  -0.000289   0.000446  -0.001093  -0.000000
     35      -0.000000  -0.000000   0.000000  -0.000000  -0.000000   0.001434
                 30         31         32         33         34         35    
      0      -0.011914  -0.005451   0.000330  -0.002362   0.001844   0.000000
      1      -0.028303  -0.013397   0.002296  -0.005905   0.004789   0.000000
      2       0.042228   0.020813  -0.007445   0.009650  -0.008162  -0.000000
      3       0.047163   0.017858  -0.011995   0.012588  -0.008907  -0.000000
      4      -0.008961  -0.031336  -0.018263   0.007354   0.002462  -0.000000
      5      -0.087671  -0.117257  -0.039236   0.005852   0.018929   0.000000
      6       0.115740   0.147362   0.049025   0.015150  -0.009955   0.000000
      7       0.000000   0.000000  -0.000000   0.000000  -0.000000   0.025529
      8      -0.066792  -0.089342  -0.029916   0.004466   0.014418   0.000000
      9       0.086258   0.109826   0.036537   0.011291  -0.007419  -0.000000
     10       0.000000   0.000000  -0.000000   0.000000  -0.000000   0.020447
     11      -0.044057  -0.062706  -0.022492   0.004258   0.009618   0.000000
     12       0.035545   0.045257   0.015056   0.004653  -0.003057  -0.000000
     13       0.000000   0.000000  -0.000000   0.000000  -0.000000   0.018221
     14       0.000862   0.001153   0.000386  -0.000057  -0.000186  -0.000000
     15      -0.003718  -0.004733  -0.001575  -0.000487   0.000320  -0.000000
     16       0.000000  -0.000000   0.000000  -0.000000   0.000000  -0.000228
     17       0.001438   0.001495   0.000328   0.000054  -0.000299   0.000000
     18       0.000000   0.000000   0.000000   0.000000  -0.000000   0.000000
     19       0.005006   0.006850   0.002354  -0.000388  -0.001085   0.000000
     20      -0.005771  -0.007348  -0.002444  -0.000755   0.000496   0.000000
     21      -0.000000  -0.000000   0.000000  -0.000000   0.000000  -0.001327
     22       0.000749   0.000248  -0.000215   0.000212  -0.000140  -0.000000
     23      -0.000000  -0.000000  -0.000000  -0.000000  -0.000000   0.000000
     24      -0.013038  -0.022063  -0.010289  -0.005501  -0.002893  -0.000000
     25      -0.022063  -0.030969  -0.012295  -0.008183  -0.002627  -0.000000
     26      -0.010289  -0.012295  -0.003967  -0.003208  -0.000289   0.000000
     27      -0.005501  -0.008183  -0.003208  -0.000390   0.000446  -0.000000
     28       0.002893   0.002627   0.000289  -0.000446  -0.001093  -0.000000
     29      -0.000000   0.000000  -0.000000   0.000000  -0.000000   0.001434
     30       0.078070   0.093938   0.028303   0.006424  -0.010729   0.000000
     31       0.093938   0.116725   0.036840   0.007001  -0.012605   0.000000
     32       0.028303   0.036840   0.012380   0.001843  -0.003609  -0.000000
     33       0.006424   0.007001   0.001843   0.001171  -0.000579   0.000000
     34      -0.010729  -0.012605  -0.003609  -0.000579   0.001767  -0.000000
     35       0.000000   0.000000  -0.000000   0.000000  -0.000000   0.001434


-------
TIMINGS
-------

Total SCF time: 0 days 0 hours 0 min 0 sec 

Total time                  ....       0.352 sec
Sum of individual times     ....       0.324 sec  ( 92.0%)

SCF preparation             ....       0.064 sec  ( 18.2%)
Fock matrix formation       ....       0.160 sec  ( 45.5%)
  Startup                   ....       0.021 sec  ( 13.1% of F)
  Split-RI-J                ....       0.023 sec  ( 14.4% of F)
  Chain of spheres X        ....       0.064 sec  ( 40.0% of F)
  XC integration            ....       0.030 sec  ( 18.8% of F)
    Basis function eval.    ....       0.003 sec  ( 10.0% of XC)
Diagonalization             ....       0.000 sec  (  0.0%)
Density matrix formation    ....       0.018 sec  (  5.1%)
Total Energy calculation    ....       0.017 sec  (  4.8%)
Population analysis         ....       0.000 sec  (  0.0%)
Orbital Transformation      ....       0.011 sec  (  3.1%)
Orbital Orthonormalization  ....       0.000 sec  (  0.0%)
DIIS solution               ....       0.034 sec  (  9.7%)
  MO trafo                  ....       0.000 sec  (  0.0 % of DIIS)
  Orb grad                  ....       0.000 sec  (  0.0 % of DIIS)
  Energy W gradient         ....       0.000 sec  (  0.0 % of DIIS)
  DIIS error                ....       0.011 sec  ( 32.4 % of DIIS)
  DIIS work                 ....       0.018 sec  ( 52.9 % of DIIS)
  Form Q                    ....       0.000 sec  (  0.0 % of DIIS)
  Form QpQm                 ....       0.000 sec  (  0.0 % of DIIS)
  Exp/Cayley                ....       0.000 sec  (  0.0 % of DIIS)
  Orb update                ....       0.000 sec  (  0.0 % of DIIS)
  Wake-sleep                ....       0.005 sec  ( 14.7 % of DIIS)
SOSCF solution              ....       0.020 sec  (  5.7%)
  MO trafo                  ....       0.014 sec  ( 70.0 % of SOSCF)
  Orb grad                  ....       0.002 sec  ( 10.0 % of SOSCF)
  Rot update                ....       0.000 sec  (  0.0 % of SOSCF)
  Step                      ....       0.002 sec  ( 10.0 % of SOSCF)
Finished LeanSCF after   0.4 sec

Maximum memory used throughout the entire LEANSCF-calculation: 5.2 MB


-------------------------------------------------------------------------------
                          DFT DISPERSION CORRECTION                            
                                                                               
                              DFTD3 V3.1  Rev 1                                
                          USING Becke-Johnson damping                          
-------------------------------------------------------------------------------
The B3LYP functional is recognized
Active option DFTDOPT                   ...         4   

C6 coefficients used: 
	2 C6 for element 	 1
Z=1  CN=    0.911800  	 C6(AA)=    3.026700
Z=1  CN=    0.000000  	 C6(AA)=    7.591600
	3 C6 for element 	 8
Z=8  CN=    0.000000  	 C6(AA)=   15.505900
Z=8  CN=    0.992500  	 C6(AA)=   12.816100
Z=8  CN=    1.988700  	 C6(AA)=   10.370800

  #           XYZ [au]              r0(AA) [Ang.]  CN      C6(AA)     C8(AA)    C10(AA) [au]
  1    0.00000    0.00000    0.11830  o   1.241   1.985      10.4      210.2     5195.4
  2   -1.49666    0.00000   -0.93976  h   1.091   0.993       3.1       37.4      553.8
  3    1.49666    0.00000   -0.93976  h   1.091   0.993       3.1       37.4      553.8

molecular C6(AA) [au] = 44.539956 


            DFT-D V3
 parameters
 s6 scaling factor         :     1.0000 
 a1 scaling factor         :     0.3981 
 s8 scaling factor         :     1.9889 
 a2 scaling factor         :     4.4211 
 ad hoc parameters k1-k3   :    16.0000     1.3333    -4.0000 

 Edisp/kcal,au: -0.359913643782  -0.000573558839 
 E6   /kcal   :  -0.196756689 
 E8   /kcal   :  -0.163156955 
 % E8         :  45.332250633 

-------------------------   ----------------
Dispersion correction           -0.000573559
-------------------------   ----------------


-------------------------   --------------------
FINAL SINGLE POINT ENERGY       -76.425118321234
-------------------------   --------------------



           ************************************************************
           *        Program running with 20 parallel MPI-processes    *
           *              working on a common directory               *
           ************************************************************

------------------------------------------------------------------------------
                              ORCA PROPERTY CALCULATIONS
------------------------------------------------------------------------------

GBWName                                 ... D:\hty\creat\code\github\pyORCA\Goble\..\Test\ORCA_cal\ORCA_structure\H2O_1\input.gbw
Number of atoms                         ...      3
Number of basis functions               ...     36
Max core memory                         ...   2000 MB

Electric properties:
Dipole moment                           ... YES
Quadrupole moment                       ...  NO
Static polarizability (Dipole/Dipole)   ...  NO
Static polarizability (Dipole/Quad.)    ...  NO
Static polarizability (Quad./Quad.)     ...  NO
Static polarizability (Velocity)        ...  NO

Atomic electric properties:
Dipole moment                           ...  NO
Quadrupole moment                       ...  NO
Static polarizability                   ...  NO

Choice of electric origin               ... Center of mass
Position of electric origin             ...     0.000000     0.000000    -0.000107

General magnetic properties:
Magnetizability                         ...  NO

EPR properties:
g-Tensor (aka g-matrix)                 ...  NO
Zero-Field splitting spin-orbit         ...  NO
Zero-field splitting spin-spin          ...  NO
Hyperfine couplings                     ...  NO (   0 nuclei)
Quadrupole couplings                    ...  NO (   0 nuclei)
Contact density                         ...  NO (   0 nuclei)

NMR properties:
Chemical shifts                         ...  NO (   0 nuclei)
Spin-rotation constants                 ...  NO (   0 nuclei)
Spin-spin couplings                     ...  NO (   0 nuclei,    0 pairs)

Choice of magnetic origin               ... GIAO
Position of magnetic origin             ...     0.000000     0.000000     0.000000

Properties with geometric perturbations:
SCF Hessian                             ...  NO
IR spectrum                             ...  NO
VCD spectrum                            ...  NO
X-ray spectroscopy properties:
SCF XES/XAS/RIXS spectra                ...  NO


-------------
DIPOLE MOMENT
-------------

Method             : SCF
Type of density    : Electron Density
Multiplicity       :   1
Irrep              :   0
Energy             :   -76.4245447623947030 Eh
Relativity type    : 
Basis              : AO
                                X                 Y                 Z
Electronic contribution:      0.000000009      -0.000000000       0.147422210
Nuclear contribution   :      0.000000000       0.000000000      -0.932077441
                        -----------------------------------------
Total Dipole Moment    :      0.000000009      -0.000000000      -0.784655231
                        -----------------------------------------
Magnitude (a.u.)       :      0.784655231
Magnitude (Debye)      :      1.994435097



--------------------
Rotational spectrum 
--------------------
 
Rotational constants in cm-1:            30.034947            13.330794             9.232857 
Rotational constants in MHz :        900425.051220        399647.143338        276794.089602 

Dipole components along the rotational axes: 
x,y,z [a.u.] :     0.000000    -0.784655    -0.000000 
x,y,z [Debye]:     0.000000    -1.994435    -0.000000 

 

Dipole moment calculation done in   0.0 sec 

Maximum memory used throughout the entire PROP-calculation: 3.4 MB

--------------------------------
SUGGESTED CITATIONS FOR THIS RUN
--------------------------------

Below you find a list of papers that are relevant to this ORCA run
We neither can nor want to force you to cite these papers, but we appreciate if you do
You receive ORCA, which is the product of decades of hard work by many enthusiastic individuals, for free
The only thing we kindly ask in return is that you cite our papers,
We deeply appreciate it, if you show your appreciation for ORCA by not just citing the generic ORCA reference.

Please note that relegating all ORCA citations to the supporting information does *not* help us.
SI sections are not indexed - citations you put there will not count into any citation statistics
But we need these citations in order to attract the funding resources that allow us to do what we are doing

Therefore, if you are a happy ORCA user, please consider citing a few of the papers listed below in the main body of your paper

In addition to the list printed below, the program has created the file D:\hty\creat\code\github\pyORCA\Goble\..\Test\ORCA_cal\ORCA_structure\H2O_1\input.bibtex that contains the list in bibtex format
You can import this file easily into all common literature databanks and citation aid programs


List of essential papers. We consider these as the minimum necessary citations

  1. Neese,F.
     Software update: the ORCA program system, version 5.0
     WIRES Comput. Molec. Sci., 2022 12(1)e1606
     doi.org/10.1002/wcms.1606

List of papers to cite with high priority. The work reported in these papers was absolutely
necessary for this run to complete.
Our perspective: the developers of density functionals and basis sets usually get cited in chemistry papers
Good! But without the algorithms to do something with them, the functionals or basis sets would not do anything.
Hence, in our opinion, the algorithm design and method developments papers are equally worthy of getting cited

  1. Neese,F.
     An improvement of the resolution of the identity approximation for the formation of the Coulomb matrix
     J. Comp. Chem., 2003 24(14)1740-1747
     doi.org/10.1002/jcc.10318
  2. Neese,F.; Wennmohs,F.; Hansen,A.; Becker,U.
     Efficient, approximate and parallel Hartree-Fock and hybrid DFT calculations. A 'chain-of-spheres' algorithm for the Hartree-Fock exchange
     Chem. Phys., 2009 356(1-3)98-109
     doi.org/10.1016/j.chemphys.2008.10.036
  3. Helmich-Paris,B.; de Souza,B.; Neese,F.; Izsák,R.
     An improved chain of spheres for exchange algorithm
     J. Chem. Phys., 2021 155 104109
     doi.org/doi: 10.1063/5.0058766.
  4. Neese,F.
     The SHARK Integral Generation and Digestion System
     J. Comp. Chem., 2022  1-16
     doi.org/10.1002/jcc.26942
  5. Grimme,S.; Antony,J.; Ehrlich,S.; Krieg,H.
     A consistent and accurate ab initio parametrization of density functional dispersion correction (DFT-D) for the 94 elements H-Pu
     J. Chem. Phys., 2010 132 154104-XXXX
     doi.org/10.1063/1.3382344
  6. Grimme,S.; Ehrlich,S.; Goerigk,L.
     Effect of the damping function in dispersion corrected density functional theory
     J. Comput. Chem., 2011 32(7)1456-1465
     doi.org/10.1002/jcc.21759

List of suggested additional citations. These are papers that are important in the 'surrounding' of 
of this run, or papers that preceded the highly important papers. If you like your results we are grateful for a citation.

  1. Izsak,R.; Neese,F.
     An overlap fitted chain of spheres exchange method
     J. Chem. Phys., 2011 135 144105
     doi.org/10.1063/1.3646921
  2. Izsak,R.; Hansen,A.; Neese,F.
     The resolution of identity and chain of spheres approximations for the LPNO-CCSD singles Fock term
     Molec. Phys., 2012 110 2413-2417
     doi.org/10.1080/00268976.2012.687466
  3. Neese,F.
     The ORCA program system
     WIRES Comput. Molec. Sci., 2012 2(1)73-78
     doi.org/10.1002/wcms.81
  4. Izsak,R.; Neese,F.; Klopper,W.
     Robust fitting techniques in the chain of spheres approximation to the Fock exchange: The role of the complementary space
     J. Chem. Phys., 2013 139 
     doi.org/10.1063/1.4819264
  5. Neese,F.
     Software update: the ORCA program system, version 4.0
     WIRES Comput. Molec. Sci., 2018 8(1)1-6
     doi.org/10.1002/wcms.1327
  6. Neese,F.; Wennmohs,F.; Becker,U.; Riplinger,C.
     The ORCA quantum chemistry program package
     J. Chem. Phys., 2020 152 Art. No. L224108
     doi.org/10.1063/5.0004608

List of optional additional citations

  1. Neese,F.
     Approximate second-order SCF convergence for spin unrestricted wavefunctions
     Chem. Phys. Lett., 2000 325(1-3)93-98
     doi.org/10.1016/s0009-2614(00)00662-x

Timings for individual modules:

Sum of individual times          ...        2.866 sec (=   0.048 min)
Startup calculation              ...        0.785 sec (=   0.013 min)  27.4 %
SCF iterations                   ...        1.531 sec (=   0.026 min)  53.4 %
Property calculations            ...        0.550 sec (=   0.009 min)  19.2 %
                             ****ORCA TERMINATED NORMALLY****
TOTAL RUN TIME: 0 days 0 hours 0 minutes 3 seconds 974 msec
