[Molden Format]
[Title]
 Molden file created by orca_2mkl for BaseName=D:\hty\creat\code\github\orcacal\Test\ORCA_cal\ORCA_structure\Chloroform_1\input

[Atoms] AU
C    1   6          1.2886023610         0.0588838663         0.3586265565 
Cl   2  17          2.7217933377        -2.8175514301        -0.6436426109 
Cl   3  17          2.6639979536         2.6260068994        -1.3297511476 
C    4   6         -1.5479842804        -0.0308989120        -0.1147479503 
H    5   1          1.6505737328         0.3211306106         2.4087866598 
H    6   1         -1.9384924065        -0.2929132199        -2.1606599492 
H    7   1         -2.4012938956        -1.6229969593         0.9537863538 
H    8   1         -2.4371968025         1.7583391450         0.5276020880 
[GTO]
  1 0
s   5 1.0 
     1238.4016938000         0.8208956682
      186.2900499200         1.4766449896
       42.2511763460         2.1526124058
       11.6765579320         2.1081722461
        3.5930506482         0.8290999933
s   1 1.0 
        0.4024514736         0.3601183351
s   1 1.0 
        0.1309018267         0.1551027052
p   3 1.0 
        9.4680970621         1.3467645142
        2.0103545142         1.0678070931
        0.5477100471         0.5108735714
p   1 1.0 
        0.1526861379         0.1360471976
d   1 1.0 
        0.8000000000         1.9292013661

  2 0
s   5 1.0 
    10449.8275660000         3.9973241313
     1571.7365221000         7.2277480961
      357.1206552300        10.7494942607
      100.2518593500        10.7118498358
       30.8127275540         4.0765111022
s   3 1.0 
       51.9237894340        -1.2786987774
        5.7045760975         1.4832318965
        2.3508376809         0.6815120566
s   1 1.0 
        0.4460512467         0.3889991572
s   1 1.0 
        0.1684885619         0.1874294841
p   5 1.0 
      307.6679056900       -16.3095226390
       72.1020155150       -19.2520828188
       22.5326802620       -16.9965641132
        7.8991765444        -9.1249716393
        2.8767268321        -2.0801728153
p   1 1.0 
        0.7745936396         1.0358157160
p   1 1.0 
        0.2103769970         0.2030897020
d   1 1.0 
        0.6500000000         1.3414313681

  3 0
s   5 1.0 
    10449.8275660000         3.9973241313
     1571.7365221000         7.2277480961
      357.1206552300        10.7494942607
      100.2518593500        10.7118498358
       30.8127275540         4.0765111022
s   3 1.0 
       51.9237894340        -1.2786987774
        5.7045760975         1.4832318965
        2.3508376809         0.6815120566
s   1 1.0 
        0.4460512467         0.3889991572
s   1 1.0 
        0.1684885619         0.1874294841
p   5 1.0 
      307.6679056900       -16.3095226390
       72.1020155150       -19.2520828188
       22.5326802620       -16.9965641132
        7.8991765444        -9.1249716393
        2.8767268321        -2.0801728153
p   1 1.0 
        0.7745936396         1.0358157160
p   1 1.0 
        0.2103769970         0.2030897020
d   1 1.0 
        0.6500000000         1.3414313681

  4 0
s   5 1.0 
     1238.4016938000         0.8208956682
      186.2900499200         1.4766449896
       42.2511763460         2.1526124058
       11.6765579320         2.1081722461
        3.5930506482         0.8290999933
s   1 1.0 
        0.4024514736         0.3601183351
s   1 1.0 
        0.1309018267         0.1551027052
p   3 1.0 
        9.4680970621         1.3467645142
        2.0103545142         1.0678070931
        0.5477100471         0.5108735714
p   1 1.0 
        0.1526861379         0.1360471976
d   1 1.0 
        0.8000000000         1.9292013661

  5 0
s   3 1.0 
       13.0107010000         0.1634903809
        1.9622572000         0.2773515510
        0.4445379600         0.3157501452
s   1 1.0 
        0.1219496200         0.1470772262
p   1 1.0 
        0.8000000000         1.0784563492

  6 0
s   3 1.0 
       13.0107010000         0.1634903809
        1.9622572000         0.2773515510
        0.4445379600         0.3157501452
s   1 1.0 
        0.1219496200         0.1470772262
p   1 1.0 
        0.8000000000         1.0784563492

  7 0
s   3 1.0 
       13.0107010000         0.1634903809
        1.9622572000         0.2773515510
        0.4445379600         0.3157501452
s   1 1.0 
        0.1219496200         0.1470772262
p   1 1.0 
        0.8000000000         1.0784563492

  8 0
s   3 1.0 
       13.0107010000         0.1634903809
        1.9622572000         0.2773515510
        0.4445379600         0.3157501452
s   1 1.0 
        0.1219496200         0.1470772262
p   1 1.0 
        0.8000000000         1.0784563492

[5D]
[7F]
[9G]
[MO]
 Sym=     1a
 Ene= -1.04794151249757E+02
 Spin= Alpha
 Occup= 2.000000
  1       0.000000020078
  2      -0.000000204967
  3       0.000001086975
  4      -0.000000098144
  5       0.000009151431
  6      -0.000001137387
  7      -0.000012891243
  8       0.001245802603
  9      -0.000157206422
 10      -0.000021070966
 11       0.000006426923
 12       0.000095163891
 13      -0.000010904587
 14      -0.000059128108
 15       0.702677039670
 16       0.015637525121
 17      -0.006778684471
 18       0.004603149196
 19       0.000043709930
 20      -0.000096566227
 21      -0.000022556658
 22       0.000158169426
 23      -0.000363257022
 24      -0.000065950604
 25      -0.000504894696
 26       0.000959997093
 27       0.000268150299
 28      -0.000065277933
 29      -0.000062780646
 30       0.000041231463
 31      -0.000058119934
 32      -0.000083081282
 33      -0.703125453367
 34      -0.015647472736
 35       0.006782893539
 36      -0.004606248053
 37      -0.000041771783
 38      -0.000088878615
 39       0.000045956883
 40      -0.000150829985
 41      -0.000338879014
 42       0.000154543987
 43       0.000485784516
 44       0.000874372388
 45      -0.000499690656
 46       0.000038626081
 47       0.000079872961
 48       0.000079241696
 49       0.000045850952
 50      -0.000062914185
 51       0.000000009330
 52      -0.000000111970
 53      -0.000000000407
 54       0.000000949152
 55      -0.000093574452
 56       0.000011804855
 57      -0.000006829770
 58       0.000658985947
 59      -0.000083157686
 60      -0.000000637075
 61       0.000004924978
 62       0.000002939894
 63       0.000000464341
 64      -0.000039250564
 65      -0.000000109834
 66      -0.000000054066
 67       0.000000179676
 68      -0.000018225660
 69       0.000002298410
 70      -0.000000071789
 71       0.000000011954
 72       0.000000804726
 73      -0.000078703078
 74       0.000009928522
 75       0.000220289185
 76       0.000250769629
 77       0.000067157653
 78      -0.000008469388
 79      -0.000031702399
 80      -0.000220291200
 81      -0.000250568681
 82      -0.000067064865
 83      -0.000001788230
 84       0.000032994304
 Sym=     1a
 Ene= -1.04794117674935E+02
 Spin= Alpha
 Occup= 2.000000
  1      -0.000062654728
  2       0.000641604278
  3      -0.003398423804
  4       0.000002817188
  5      -0.000006155768
  6      -0.000049102315
  7      -0.001055422540
  8       0.000060774680
  9       0.000567893825
 10      -0.000063740522
 11      -0.000047359281
 12      -0.000022378163
 13      -0.000060508371
 14      -0.000007303587
 15       0.703131199110
 16       0.015598235295
 17      -0.006599844358
 18       0.004856810317
 19       0.000048586542
 20      -0.000066867390
 21      -0.000033519864
 22       0.000183035458
 23      -0.000221198281
 24      -0.000122398929
 25      -0.000583981299
 26       0.001039994361
 27       0.000394859293
 28      -0.000068480254
 29       0.000002446328
 30       0.000098790814
 31      -0.000070689090
 32      -0.000116903462
 33       0.702682789068
 34       0.015588256322
 35      -0.006595518594
 36       0.004853874081
 37       0.000047240116
 38       0.000057403608
 39      -0.000049160811
 40       0.000178598060
 41       0.000187472621
 42      -0.000173836757
 43      -0.000562846230
 44      -0.000920919644
 45       0.000641765935
 46      -0.000017114854
 47      -0.000023780905
 48      -0.000132902823
 49      -0.000045866074
 50       0.000111645923
 51      -0.000029199371
 52       0.000351760167
 53      -0.000005497428
 54       0.000139182249
 55      -0.000002753709
 56      -0.000033331036
 57      -0.000528729509
 58       0.000033370843
 59       0.000307601477
 60      -0.000009621074
 61      -0.000027228101
 62      -0.000002631324
 63      -0.000001557417
 64      -0.000003481313
 65       0.000344522098
 66       0.000170785999
 67       0.000043739182
 68      -0.000000075078
 69      -0.000004232518
 70       0.000225910135
 71      -0.000037022671
 72       0.000096878385
 73      -0.000002438906
 74      -0.000027308403
 75       0.000003665960
 76      -0.000315802372
 77       0.000025967908
 78      -0.000073997383
 79       0.000010814663
 80       0.000003525106
 81      -0.000315962012
 82       0.000024344391
 83       0.000074891610
 84      -0.000007930480
 Sym=     1a
 Ene= -1.13650830193370E+01
 Spin= Alpha
 Occup= 2.000000
  1       0.991024311067
  2       0.036517875587
  3      -0.034351793709
  4       0.000250394320
  5      -0.000009243335
  6      -0.000094428683
  7       0.002650164784
  8       0.000313544832
  9       0.002264380240
 10       0.000610775897
 11       0.000366850609
 12       0.000179353435
 13       0.000311017035
 14       0.000053090521
 15      -0.000064341205
 16       0.000340520487
 17      -0.001111956953
 18       0.005928955049
 19       0.000025182399
 20      -0.000076009807
 21      -0.000007965569
 22       0.000081824235
 23      -0.000297420133
 24       0.000014389390
 25      -0.001049728398
 26       0.002215116074
 27       0.000175747301
 28       0.000260422999
 29       0.000197182999
 30      -0.000532388114
 31       0.000347117931
 32       0.000447150858
 33      -0.000064341414
 34       0.000340521507
 35      -0.001111958185
 36       0.005928956023
 37       0.000023609171
 38       0.000072166174
 39      -0.000026641982
 40       0.000075552790
 41       0.000293334560
 42      -0.000060070188
 43      -0.001003664455
 44      -0.002123686370
 45       0.000722609704
 46      -0.000005143381
 47       0.000287573917
 48       0.000665854867
 49       0.000211198752
 50      -0.000374009904
 51       0.002815986859
 52      -0.001251209308
 53       0.011060574262
 54      -0.000741536290
 55      -0.000017091067
 56      -0.000073131423
 57       0.004881233581
 58       0.000031872829
 59      -0.000158341237
 60       0.000247248421
 61      -0.000212149052
 62      -0.000012070237
 63      -0.000504222446
 64      -0.000037467466
 65      -0.001260731725
 66       0.006227904794
 67       0.000103465886
 68       0.000125144843
 69       0.000984179572
 70      -0.000256389846
 71      -0.000019818584
 72       0.000382742515
 73       0.000023114466
 74       0.000151147919
 75      -0.000008855042
 76       0.000015097264
 77       0.000220990260
 78       0.000093338405
 79       0.000039961947
 80      -0.000008856522
 81       0.000015095677
 82       0.000222786428
 83      -0.000075864365
 84       0.000061288545
 Sym=     1a
 Ene= -1.12605314245972E+01
 Spin= Alpha
 Occup= 2.000000
  1       0.002569316187
  2       0.000471155355
  3      -0.004531997235
  4      -0.000740838296
  5      -0.000010719586
  6      -0.000022645186
  7       0.002224009899
  8      -0.000020300011
  9      -0.000348403527
 10      -0.000441444835
 11       0.000182420566
 12      -0.000003204340
 13       0.000723809874
 14       0.000038362685
 15       0.000004017901
 16      -0.000052986409
 17       0.000604919693
 18      -0.001196823481
 19      -0.000037459951
 20       0.000018309746
 21      -0.000002018010
 22      -0.000252319854
 23       0.000127587217
 24      -0.000011317871
 25       0.000883854806
 26      -0.000555905350
 27       0.000034273177
 28       0.000191686801
 29      -0.000013914366
 30      -0.000002025363
 31      -0.000157677995
 32       0.000205262993
 33       0.000004017913
 34      -0.000052986538
 35       0.000604919859
 36      -0.001196822013
 37      -0.000037063747
 38      -0.000019016739
 39       0.000002686668
 40      -0.000249567790
 41      -0.000131650760
 42       0.000021356690
 43       0.000871948731
 44       0.000565373639
 45      -0.000107053036
 46       0.000181375673
 47       0.000037774822
 48       0.000045009874
 49      -0.000154837846
 50      -0.000208834238
 51      -0.990589799573
 52      -0.038143879172
 53       0.030682718097
 54       0.000133430943
 55      -0.000000594517
 56      -0.000015967370
 57       0.001354468315
 58       0.000024938743
 59       0.000083801060
 60      -0.000129671005
 61       0.000127354186
 62       0.000010254355
 63       0.000293695918
 64       0.000022304142
 65      -0.000022002094
 66      -0.000118037783
 67       0.000332391798
 68       0.000013895523
 69       0.000082243703
 70       0.001230535518
 71      -0.005730167450
 72       0.000023812592
 73       0.000151203084
 74       0.001197630562
 75       0.001381971170
 76      -0.005535933059
 77       0.000377941336
 78       0.001012921219
 79      -0.000678863627
 80       0.001381969184
 81      -0.005535921953
 82       0.000400818565
 83      -0.001141556852
 84      -0.000407313539
 Sym=     1a
 Ene= -1.05580490966883E+01
 Spin= Alpha
 Occup= 2.000000
  1      -0.000000223079
  2      -0.000000246304
  3       0.000001278930
  4       0.000000772802
  5      -0.000081365845
  6       0.000010315854
  7      -0.000006602370
  8       0.000762998760
  9      -0.000096050943
 10      -0.000065641425
 11       0.000032966260
 12       0.000297586619
 13      -0.000031660842
 14      -0.000285553363
 15       0.220866869431
 16      -0.726249604556
 17      -0.022087610567
 18       0.006677605994
 19      -0.001338633741
 20       0.002567450914
 21       0.001006608989
 22       0.000392435181
 23      -0.000842483981
 24      -0.000219076363
 25      -0.000405534715
 26       0.000889666172
 27       0.000150958894
 28       0.000022974096
 29       0.000015513070
 30      -0.000104441289
 31       0.000051598613
 32       0.000107722067
 33      -0.221502765513
 34       0.728340670424
 35       0.022150044922
 36      -0.006695560762
 37       0.001291037247
 38       0.002271466723
 39      -0.001620305435
 40      -0.000376495116
 41      -0.000771334340
 42       0.000423570814
 43       0.000388432302
 44       0.000833887891
 45      -0.000369402890
 46       0.000025408186
 47      -0.000039399247
 48      -0.000114864853
 49      -0.000028299263
 50       0.000099312697
 51       0.000000054880
 52      -0.000000582251
 53       0.000001342852
 54       0.000000954906
 55      -0.000107064678
 56       0.000013563686
 57      -0.000006742841
 58       0.000780386104
 59      -0.000099017564
 60       0.000005019062
 61      -0.000002940475
 62      -0.000022805888
 63       0.000002393889
 64       0.000025172630
 65      -0.000000449610
 66       0.000000205732
 67      -0.000000943821
 68       0.000091482110
 69      -0.000011574672
 70      -0.000000412914
 71       0.000000133792
 72       0.000000707289
 73      -0.000072793018
 74       0.000009253935
 75       0.000233985602
 76       0.000158919832
 77       0.000021193561
 78      -0.000030898583
 79      -0.000019905746
 80      -0.000234033431
 81      -0.000157929007
 82      -0.000020684006
 83      -0.000025635819
 84       0.000027057256
 Sym=     1a
 Ene= -1.05580362589019E+01
 Spin= Alpha
 Occup= 2.000000
  1      -0.000154966223
  2      -0.000171161522
  3       0.000889186643
  4      -0.000063107654
  5       0.000004664181
  6       0.000041381792
  7       0.001042397461
  8       0.000020025653
  9       0.000079908860
 10       0.000184531656
 11       0.000154732935
 12       0.000071945341
 13       0.000232373922
 14       0.000024951606
 15      -0.221511282219
 16       0.728412561340
 17       0.021749006080
 18      -0.006254866435
 19       0.001337084346
 20      -0.002616903903
 21      -0.000995155990
 22      -0.000421343264
 23       0.000621054020
 24       0.000301014265
 25       0.000422161707
 26      -0.000520981802
 27      -0.000354484800
 28      -0.000073790423
 29      -0.000054817922
 30       0.000011097295
 31      -0.000125807218
 32      -0.000087071790
 33      -0.220875410543
 34       0.726321701600
 35       0.021685418634
 36      -0.006235644236
 37       0.001281030216
 38       0.002309003550
 39      -0.001612183429
 40      -0.000407985348
 41      -0.000533400571
 42       0.000445584609
 43       0.000410998968
 44       0.000423049971
 45      -0.000472712834
 46      -0.000055382798
 47      -0.000073046403
 48      -0.000072089624
 49      -0.000118297118
 50       0.000065387594
 51       0.000038171230
 52      -0.000405122432
 53       0.000934317103
 54      -0.000126580265
 55       0.000004804445
 56       0.000047540887
 57       0.001074380490
 58      -0.000046668148
 59      -0.000451725988
 60      -0.000021899997
 61      -0.000011619660
 62      -0.000003885159
 63       0.000008317252
 64      -0.000001330232
 65      -0.000312862058
 66       0.000142815117
 67       0.000019095412
 68      -0.000003745059
 69      -0.000030262442
 70      -0.000287322001
 71       0.000093191634
 72      -0.000045650818
 73       0.000006458923
 74       0.000054247032
 75      -0.000016988396
 76       0.000344700384
 77      -0.000032299396
 78       0.000073414006
 79      -0.000000221722
 80      -0.000016315580
 81       0.000345154758
 82      -0.000030698106
 83      -0.000071758444
 84       0.000018007587
 Sym=     1a
 Ene= -8.03301348666652E+00
 Spin= Alpha
 Occup= 2.000000
  1       0.000000006812
  2      -0.000000740253
  3       0.000009715453
  4      -0.000001712735
  5       0.000172079357
  6      -0.000021641419
  7      -0.000021887811
  8       0.002267252349
  9      -0.000287074089
 10      -0.000109145360
 11       0.000054472434
 12       0.000494558279
 13      -0.000052703466
 14      -0.000472129467
 15      -0.001119150895
 16       0.004176493355
 17      -0.002540448445
 18       0.003392206760
 19      -0.286135519622
 20       0.598320964066
 21       0.205475649795
 22       0.013064327673
 23      -0.027385661997
 24      -0.009327299128
 25      -0.002509262412
 26       0.005129161690
 27       0.001671275863
 28       0.000029524805
 29      -0.000012898912
 30      -0.000106922756
 31       0.000064334442
 32       0.000108681078
 33       0.001122077893
 34      -0.004187290066
 35       0.002546396834
 36      -0.003402884545
 37       0.274834870916
 38       0.535885804030
 39      -0.349174028687
 40      -0.012546857690
 41      -0.024545856454
 42       0.015906652362
 43       0.002412718921
 44       0.004617988579
 45      -0.002906632285
 46       0.000021146942
 47      -0.000011917298
 48      -0.000122061968
 49      -0.000039737294
 50       0.000106566098
 51       0.000000076353
 52      -0.000000925917
 53       0.000000222446
 54       0.000001092842
 55      -0.000138978859
 56       0.000017563239
 57      -0.000010317560
 58       0.001023744681
 59      -0.000129752893
 60       0.000009484708
 61       0.000002244358
 62      -0.000042604451
 63       0.000005638235
 64      -0.000014156959
 65      -0.000000965684
 66      -0.000000872259
 67      -0.000000185089
 68       0.000016082822
 69      -0.000001872027
 70      -0.000000402686
 71      -0.000000396526
 72       0.000001021782
 73      -0.000114200343
 74       0.000014397618
 75       0.000266447582
 76       0.000550340200
 77       0.000098874838
 78      -0.000015084243
 79      -0.000043372205
 80      -0.000266553728
 81      -0.000549593260
 82      -0.000098787668
 83      -0.000006097957
 84       0.000046090553
 Sym=     1a
 Ene= -8.03299955347980E+00
 Spin= Alpha
 Occup= 2.000000
  1       0.000005119921
  2      -0.000561634086
  3       0.007369304368
  4       0.000086821856
  5       0.000005115973
  6       0.000035108915
  7       0.001660320214
  8      -0.000108592973
  9      -0.000977341448
 10       0.000294957229
 11       0.000274807768
 12       0.000118518634
 13       0.000396291477
 14       0.000043845128
 15       0.001110997879
 16      -0.004098243656
 17       0.002258940598
 18      -0.004054037326
 19       0.287389593407
 20      -0.599470258930
 21      -0.206715473433
 22      -0.013134763332
 23       0.027183052936
 24       0.009455581192
 25       0.002689493572
 26      -0.005368248628
 27      -0.001916029860
 28      -0.000017092072
 29      -0.000070679628
 30      -0.000025648901
 31      -0.000045652768
 32      -0.000006274023
 33       0.001108045876
 34      -0.004087227018
 35       0.002252236987
 36      -0.004045082563
 37       0.274619487213
 38       0.533897364852
 39      -0.348823516709
 40      -0.012555677005
 41      -0.024190792562
 42       0.015896999802
 43       0.002575408300
 44       0.004767843453
 45      -0.003187463997
 46      -0.000023495140
 47      -0.000070050523
 48       0.000003290557
 49      -0.000049058826
 50      -0.000013792528
 51       0.000057831784
 52      -0.000701823409
 53       0.000171027271
 54      -0.000290115491
 55       0.000001500067
 56       0.000034865730
 57       0.000419605515
 58      -0.000064696355
 59      -0.000537776019
 60       0.000023556950
 61      -0.000005369530
 62      -0.000006588419
 63      -0.000092232129
 64      -0.000002625878
 65      -0.000733079141
 66      -0.000662140556
 67      -0.000011367814
 68       0.000014453458
 69       0.000115799389
 70      -0.000305235777
 71      -0.000301498852
 72      -0.000144594355
 73      -0.000001014272
 74       0.000002921596
 75      -0.000040765602
 76       0.000282138490
 77      -0.000053028421
 78       0.000072937411
 79       0.000009287713
 80      -0.000040063948
 81       0.000283587407
 82      -0.000051256620
 83      -0.000069428224
 84       0.000027112437
 Sym=     1a
 Ene= -8.02943868913802E+00
 Spin= Alpha
 Occup= 2.000000
  1      -0.000000034593
  2       0.000000408513
  3      -0.000001822476
  4       0.000001434670
  5      -0.000116612889
  6       0.000014449392
  7      -0.000011431743
  8       0.000958267253
  9      -0.000117833084
 10      -0.000002421972
 11      -0.000001413452
 12       0.000011165095
 13      -0.000001644919
 14       0.000009721844
 15      -0.000040298578
 16       0.000123246298
 17       0.000146145584
 18       0.000141819509
 19      -0.431757984522
 20      -0.349617460246
 21       0.416867297017
 22       0.018479284035
 23       0.015031587896
 24      -0.017839351020
 25      -0.002629979811
 26      -0.002037895094
 27       0.002504181687
 28      -0.000014678911
 29       0.000054890914
 30       0.000012025034
 31      -0.000017337461
 32      -0.000004424532
 33       0.000040491445
 34      -0.000124059768
 35      -0.000144966192
 36      -0.000141267679
 37       0.441765794718
 38      -0.434679983089
 39      -0.319437341777
 40      -0.018908765124
 41       0.018668715125
 42       0.013652373316
 43       0.002687621977
 44      -0.002549345114
 45      -0.001933544172
 46       0.000007867751
 47      -0.000052727538
 48       0.000019752318
 49       0.000014082561
 50      -0.000017059017
 51       0.000000037192
 52      -0.000000682176
 53       0.000000971420
 54       0.000000743301
 55      -0.000084854955
 56       0.000010766305
 57      -0.000001471639
 58       0.000289737511
 59      -0.000039107077
 60      -0.000000699879
 61       0.000000785274
 62       0.000003083102
 63      -0.000000157200
 64      -0.000007136354
 65      -0.000000517057
 66      -0.000000286901
 67       0.000000543242
 68      -0.000025840103
 69       0.000003122015
 70      -0.000000518867
 71      -0.000001383344
 72       0.000000631996
 73      -0.000069878124
 74       0.000008746498
 75       0.000205650688
 76      -0.000171196475
 77       0.000010554880
 78      -0.000026698803
 79       0.000007278549
 80      -0.000205613163
 81       0.000173576285
 82      -0.000010064345
 83      -0.000028283457
 84      -0.000000189123
 Sym=     1a
 Ene= -8.02942983618783E+00
 Spin= Alpha
 Occup= 2.000000
  1      -0.000018043638
  2       0.000213280228
  3      -0.000951560957
  4       0.000102580168
  5      -0.000014769941
  6      -0.000127629063
  7      -0.000656349925
  8       0.000181875618
  9       0.001513112213
 10       0.000028950682
 11      -0.000033456970
 12       0.000005520910
 13      -0.000003991610
 14      -0.000004313529
 15       0.000049879301
 16      -0.000210638389
 17       0.000306911712
 18       0.000143703734
 19       0.435137958410
 20       0.352047522396
 21      -0.415834249094
 22      -0.018558192299
 23      -0.014885038758
 24       0.017698552252
 25       0.002313566073
 26       0.001982448424
 27      -0.002218299399
 28       0.000048755057
 29      -0.000043069305
 30       0.000052726599
 31       0.000087179014
 32      -0.000069859977
 33       0.000049725959
 34      -0.000210169594
 35       0.000307470136
 36       0.000144249352
 37       0.441802876477
 38      -0.433373994447
 39      -0.315403845838
 40      -0.018839383692
 41       0.018348084700
 42       0.013448438674
 43       0.002350033793
 44      -0.002412279350
 45      -0.001655735380
 46       0.000061794656
 47      -0.000058701131
 48      -0.000006441978
 49       0.000091898177
 50       0.000060937233
 51       0.000019390211
 52      -0.000355878441
 53       0.000507926541
 54      -0.000082268290
 55       0.000003906837
 56       0.000036613772
 57       0.000839227569
 58      -0.000159163270
 59      -0.001329015995
 60      -0.000010110748
 61      -0.000041483828
 62       0.000002934900
 63       0.000044014976
 64      -0.000004276823
 65      -0.000269384731
 66      -0.000149668552
 67       0.000140147541
 68      -0.000007190505
 69      -0.000069254282
 70      -0.000270609805
 71      -0.000720959925
 72      -0.000057306139
 73      -0.000004403450
 74      -0.000031189787
 75       0.000009308978
 76       0.000620760727
 77      -0.000025507411
 78       0.000113866433
 79       0.000027152291
 80       0.000010097771
 81       0.000620096265
 82      -0.000023155285
 83      -0.000103968616
 84       0.000054623286
 Sym=     1a
 Ene= -8.02934356915843E+00
 Spin= Alpha
 Occup= 2.000000
  1       0.000000019110
  2      -0.000000428338
  3       0.000004260061
  4       0.000000580351
  5      -0.000124927476
  6       0.000015298061
  7      -0.000007287604
  8       0.001152291728
  9      -0.000139975784
 10       0.000006696028
 11       0.000000935603
 12      -0.000029859282
 13       0.000003852801
 14      -0.000004290908
 15      -0.000000173704
 16      -0.000012949498
 17       0.000071803532
 18       0.000312397325
 19       0.461272459588
 20       0.043897410758
 21       0.514548022754
 22      -0.019685804594
 23      -0.001858535636
 24      -0.021948796029
 25       0.002451445264
 26       0.000379983460
 27       0.002954246512
 28      -0.000055559829
 29      -0.000010299838
 30      -0.000061973777
 31       0.000044620502
 32      -0.000100677643
 33       0.000000183006
 34       0.000013000312
 35      -0.000072305842
 36      -0.000312955477
 37      -0.465358283971
 38      -0.095768308308
 39      -0.513274475592
 40       0.019860030253
 41       0.004098722976
 42       0.021890905471
 43      -0.002478406936
 44      -0.000420956125
 45      -0.002979577168
 46       0.000078714381
 47       0.000036312717
 48      -0.000041176864
 49      -0.000026919230
 50      -0.000096583354
 51      -0.000000167487
 52       0.000002646181
 53      -0.000000035397
 54      -0.000000482011
 55       0.000117249524
 56      -0.000015008909
 57       0.000015160443
 58      -0.001738139145
 59       0.000219296587
 60       0.000007221471
 61       0.000007120974
 62      -0.000032244289
 63       0.000005168397
 64      -0.000054100341
 65      -0.000002125460
 66      -0.000000394077
 67      -0.000000753232
 68       0.000056060014
 69      -0.000007575779
 70       0.000001579227
 71      -0.000002981909
 72      -0.000001254548
 73       0.000150069867
 74      -0.000019365346
 75      -0.000334306582
 76      -0.000599423892
 77      -0.000032021441
 78       0.000030231526
 79       0.000085534939
 80       0.000334472517
 81       0.000597596100
 82       0.000032096051
 83       0.000009324245
 84      -0.000090510109
 Sym=     1a
 Ene= -8.02934022875949E+00
 Spin= Alpha
 Occup= 2.000000
  1      -0.000003826930
  2       0.000085693940
  3      -0.000850308098
  4       0.000148540492
  5       0.000011993057
  6       0.000087691250
  7      -0.000983848679
  8      -0.000134468426
  9      -0.001030583361
 10      -0.000013640556
 11      -0.000013201398
 12      -0.000001653040
 13       0.000013097646
 14      -0.000001409645
 15      -0.000001292215
 16      -0.000003872141
 17       0.000050379087
 18       0.000057307057
 19       0.464008979576
 20       0.042584743915
 21       0.521599514279
 22      -0.019815781414
 23      -0.001829616660
 24      -0.022238996960
 25       0.002739333309
 26       0.000339068407
 27       0.003009957177
 28      -0.000012973217
 29       0.000002513293
 30      -0.000039118454
 31      -0.000020669925
 32      -0.000029694725
 33      -0.000001286643
 34      -0.000003754973
 35       0.000049656225
 36       0.000054168875
 37       0.458774298914
 38       0.096911144934
 39       0.509506181229
 40      -0.019592692777
 41      -0.004118911780
 42      -0.021726692652
 43       0.002713144314
 44       0.000471458340
 45       0.002962986484
 46      -0.000026147437
 47      -0.000005111891
 48       0.000023335909
 49      -0.000030233434
 50       0.000027256396
 51       0.000033379511
 52      -0.000527527051
 53       0.000008748415
 54      -0.000152097514
 55       0.000004707249