
                                 *****************
                                 * O   R   C   A *
                                 *****************

                                            #,                                       
                                            ###                                      
                                            ####                                     
                                            #####                                    
                                            ######                                   
                                           ########,                                 
                                     ,,################,,,,,                         
                               ,,#################################,,                 
                          ,,##########################################,,             
                       ,#########################################, ''#####,          
                    ,#############################################,,   '####,        
                  ,##################################################,,,,####,       
                ,###########''''           ''''###############################       
              ,#####''   ,,,,##########,,,,          '''####'''          '####       
            ,##' ,,,,###########################,,,                        '##       
           ' ,,###''''                  '''############,,,                           
         ,,##''                                '''############,,,,        ,,,,,,###''
      ,#''                                            '''#######################'''  
     '                                                          ''''####''''         
             ,#######,   #######,   ,#######,      ##                                
            ,#'     '#,  ##    ##  ,#'     '#,    #''#        ,####,   ,####,        
            ##       ##  ##   ,#'  ##            #'  '#       #'       #'  '#        
            ##       ##  #######   ##           ,######,      #####,   #    #        
            '#,     ,#'  ##    ##  '#,     ,#' ,#      #,     #,   #   #,  ,#        
             '#######'   ##     ##  '#######'  #'      '#     '####' # '####'        



                #########################################################
                #                        -***-                          #
                #          Department of theory and spectroscopy        #
                #                                                       #
                #                      Frank Neese                      #
                #                                                       #
                #     Directorship, Architecture, Infrastructure        #
                #                    SHARK, DRIVERS                     #
                #        Core code/Algorithms in most modules           #
                #                                                       #
                #        Max Planck Institute fuer Kohlenforschung      #
                #                Kaiser Wilhelm Platz 1                 #
                #                 D-45470 Muelheim/Ruhr                 #
                #                      Germany                          #
                #                                                       #
                #                  All rights reserved                  #
                #                        -***-                          #
                #########################################################


                         Program Version 6.0.0  -   RELEASE   -


 With contributions from (in alphabetic order):
   Daniel Aravena         : Magnetic Suceptibility
   Michael Atanasov       : Ab Initio Ligand Field Theory (pilot matlab implementation)
   Alexander A. Auer      : GIAO ZORA, VPT2 properties, NMR spectrum
   Ute Becker             : All parallelization in ORCA, NUMFREQ, NUMCALC
   Giovanni Bistoni       : ED, misc. LED, open-shell LED, HFLD
   Martin Brehm           : Molecular dynamics
   Dmytro Bykov           : pre 5.0 version of the SCF Hessian
   Marcos Casanova-Páez   : Triplet and SCS-CIS(D). UHF-(DLPNO)-IP/EA/STEOM-CCSD. UHF-CVS-IP/STEOM-CCSD
   Vijay G. Chilkuri      : MRCI spin determinant printing, contributions to CSF-ICE
   Pauline Colinet        : FMM embedding
   Dipayan Datta          : RHF DLPNO-CCSD density
   Achintya Kumar Dutta   : EOM-CC, STEOM-CC
   Nicolas Foglia         : Exact transition moments, OPA infrastructure, MCD improvements
   Dmitry Ganyushin       : Spin-Orbit,Spin-Spin,Magnetic field MRCI
   Miquel Garcia          : C-PCM and meta-GGA Hessian, CCSD/C-PCM, Gaussian charge scheme
   Tiago L. C. Gouveia    : GS-ROHF, GS-ROCIS
   Yang Guo               : DLPNO-NEVPT2, F12-NEVPT2, CIM, IAO-localization
   Andreas Hansen         : Spin unrestricted coupled pair/coupled cluster methods
   Ingolf Harden          : AUTO-CI MPn and infrastructure 
   Benjamin Helmich-Paris : MC-RPA, TRAH-(SCF,CASSCF), AVAS, COSX integrals, SCF dyn. polar.
   Lee Huntington         : MR-EOM, pCC
   Robert Izsak           : Overlap fitted RIJCOSX, COSX-SCS-MP3, EOM
   Riya Kayal             : Wick's Theorem for AUTO-CI, AUTO-CI UHF-CCSDT
   Emily Kempfer          : AUTO-CI, RHF CISDT and CCSDT
   Christian Kollmar      : KDIIS, OOCD, Brueckner-CCSD(T), CCSD density, CASPT2, CASPT2-K, improved NEVPT2
   Axel Koslowski         : Symmetry handling
   Simone Kossmann        : Meta GGA functionals, TD-DFT gradient, OOMP2, (MP2 Hessian; deprecated post 5.0)
   Lucas Lang             : DCDCAS
   Marvin Lechner         : AUTO-CI (C++ implementation), FIC-MRCC
   Spencer Leger          : CASSCF response
   Dagmar Lenk            : GEPOL surface, SMD, ORCA-2-JSON
   Dimitrios Liakos       : Extrapolation schemes; Compound Job, initial MDCI parallelization
   Dimitrios Manganas     : Further ROCIS development; embedding schemes. LFT, Crystal Embedding
   Dimitrios Pantazis     : SARC Basis sets
   Anastasios Papadopoulos: AUTO-CI, single reference methods and gradients
   Taras Petrenko         : pre 6.0 DFT Hessian and TD-DFT gradient, (ASA, deprecated), ECA, 1-Electron XAS/XES, NRVS
   Peter Pinski           : DLPNO-MP2, DLPNO-MP2 Gradient
   Christoph Reimann      : Effective Core Potentials
   Marius Retegan         : Local ZFS, SOC
   Christoph Riplinger    : Optimizer, TS searches, QM/MM, DLPNO-CCSD(T), (RO)-DLPNO pert. Triples
   Michael Roemelt        : Original ROCIS implementation
   Masaaki Saitow         : Open-shell DLPNO-CCSD energy and density
   Barbara Sandhoefer     : DKH picture change effects
   Kantharuban Sivalingam : CASSCF convergence/infrastructure, NEVPT2 and variants, FIC-MRCI
   Bernardo de Souza      : ESD, SOC TD-DFT
   Georgi Stoychev        : AutoAux, RI-MP2 NMR, DLPNO-MP2 response, X2C
   Van Anh Tran           : RI-MP2 g-tensors
   Willem Van den Heuvel  : Paramagnetic NMR
   Zikuan Wang            : NOTCH, Electric field optimization 
   Frank Wennmohs         : Technical directorship and infrastructure
   Hang Xu                : AUTO-CI-Response properties 


 We gratefully acknowledge several colleagues who have allowed us to
 interface, adapt or use parts of their codes:
   Stefan Grimme, W. Hujo, H. Kruse, P. Pracht,  : VdW corrections, initial TS optimization,
                  C. Bannwarth, S. Ehlert,         DFT functionals, gCP, sTDA/sTD-DF
                  L. Wittmann, M. Mueller
   Ed Valeev, F. Pavosevic, A. Kumar             : LibInt (2-el integral package), F12 methods
   Garnet Chan, S. Sharma, J. Yang, R. Olivares  : DMRG
   Ulf Ekstrom                                   : XCFun DFT Library
   Mihaly Kallay                                 : mrcc  (arbitrary order and MRCC methods)
   Frank Weinhold                                : gennbo (NPA and NBO analysis)
   Simon Mueller                                 : openCOSMO-RS
   Christopher J. Cramer and Donald G. Truhlar   : smd solvation model
   Lars Goerigk                                  : TD-DFT with DH, B97 family of functionals
   V. Asgeirsson, H. Jonsson                     : NEB implementation
   FAccTs GmbH                                   : IRC, NEB, NEB-TS, DLPNO-Multilevel, CI-OPT
                                                   MM, QMMM, 2- and 3-layer-ONIOM, Crystal-QMMM,
                                                   LR-CPCM, SF, NACMEs, symmetry and pop. for TD-DFT,
                                                   nearIR, NL-DFT gradient (VV10), updates on ESD,
                                                   ML-optimized integration grids, MBIS, APM,
                                                   GOAT, DOCKER, SOLVATOR, interface openCOSMO-RS
   S Lehtola, MJT Oliveira, MAL Marques          : LibXC Library
   Liviu Ungur et al                             : ANISO software


 Your calculation uses the libint2 library for the computation of 2-el integrals
 For citations please refer to: http://libint.valeyev.net

 Your ORCA version has been built with support for libXC version: 6.2.2
 For citations please refer to: https://libxc.gitlab.io

 This ORCA versions uses:
   CBLAS   interface :  Fast vector & matrix operations
   LAPACKE interface :  Fast linear algebra routines
   Shared memory     :  Shared parallel matrices


NOTE: MaxCore=400 MB was set to SCF,MP2,MDCI,CIPSI,MRCI and CIS
      => If you want to overwrite this, your respective input block should be placed after the MaxCore statement
================================================================================

----- Orbital basis set information -----
Your calculation utilizes the basis: def2-SVP
   F. Weigend and R. Ahlrichs, Phys. Chem. Chem. Phys. 7, 3297 (2005).

================================================================================
                                        WARNINGS
                       Please study these warnings very carefully!
================================================================================


================================================================================
                                       INPUT FILE
================================================================================
NAME = D:\hty\creat\code\github\orcacal\Test\ORCA_cal\ORCA_structure\Chloroform_1\input.inp
|  1> ! HF DEF2-SVP LARGEPRINT
|  2> # Creat by orcacal% pal nprocs 20 end
|  3> % pal nprocs 20 end
|  4> % maxcore 400
|  5> * xyz 0 1
|  6> C 0.681899 0.031160 0.189777
|  7> Cl 1.440311 -1.490984 -0.340601
|  8> Cl 1.409727 1.389623 -0.703674
|  9> C -0.819158 -0.016351 -0.060722
| 10> H 0.873446 0.169935 1.274675
| 11> H -1.025806 -0.155003 -1.143372
| 12> H -1.270710 -0.858853 0.504722
| 13> H -1.289709 0.930473 0.279195
| 14> *
| 15> 
| 16>                          ****END OF INPUT****
================================================================================

                       ****************************
                       * Single Point Calculation *
                       ****************************

---------------------------------
CARTESIAN COORDINATES (ANGSTROEM)
---------------------------------
  C      0.681899    0.031160    0.189777
  Cl     1.440311   -1.490984   -0.340601
  Cl     1.409727    1.389623   -0.703674
  C     -0.819158   -0.016351   -0.060722
  H      0.873446    0.169935    1.274675
  H     -1.025806   -0.155003   -1.143372
  H     -1.270710   -0.858853    0.504722
  H     -1.289709    0.930473    0.279195

----------------------------
CARTESIAN COORDINATES (A.U.)
----------------------------
  NO LB      ZA    FRAG     MASS         X           Y           Z
   0 C     6.0000    0    12.011    1.288602    0.058884    0.358627
   1 Cl   17.0000    0    35.453    2.721793   -2.817551   -0.643643
   2 Cl   17.0000    0    35.453    2.663998    2.626007   -1.329751
   3 C     6.0000    0    12.011   -1.547984   -0.030899   -0.114748
   4 H     1.0000    0     1.008    1.650574    0.321131    2.408787
   5 H     1.0000    0     1.008   -1.938492   -0.292913   -2.160660
   6 H     1.0000    0     1.008   -2.401294   -1.622997    0.953786
   7 H     1.0000    0     1.008   -2.437197    1.758339    0.527602

--------------------------------
INTERNAL COORDINATES (ANGSTROEM)
--------------------------------
 C      0   0   0     0.000000000000     0.00000000     0.00000000
 Cl     1   0   0     1.781407292385     0.00000000     0.00000000
 Cl     1   2   0     1.781406750115   109.16725413     0.00000000
 C      1   2   3     1.522556784285   110.12555259   121.02018000
 H      1   2   3     1.110383908492   108.91979386   241.18247849
 H      4   1   2     1.110881989911   110.34263750   299.77764329
 H      4   1   2     1.110601524330   109.92249217    60.04630893
 H      4   1   2     1.110602312921   109.92248471   179.50895613

---------------------------
INTERNAL COORDINATES (A.U.)
---------------------------
 C      0   0   0     0.000000000000     0.00000000     0.00000000
 Cl     1   0   0     3.366371915579     0.00000000     0.00000000
 Cl     1   2   0     3.366370890835   109.16725413     0.00000000
 C      1   2   3     2.877215345642   110.12555259   121.02018000
 H      1   2   3     2.098321490563   108.91979386   241.18247849
 H      4   1   2     2.099262728037   110.34263750   299.77764329
 H      4   1   2     2.098732724899   109.92249217    60.04630893
 H      4   1   2     2.098734215121   109.92248471   179.50895613

---------------------
BASIS SET INFORMATION
---------------------
There are 3 groups of distinct atoms

 Group   1 Type C   : 7s4p1d contracted to 3s2p1d pattern {511/31/1}
 Group   2 Type Cl  : 10s7p1d contracted to 4s3p1d pattern {5311/511/1}
 Group   3 Type H   : 4s1p contracted to 2s1p pattern {31/1}

Atom   0C    basis set group =>   1
Atom   1Cl   basis set group =>   2
Atom   2Cl   basis set group =>   2
Atom   3C    basis set group =>   1
Atom   4H    basis set group =>   3
Atom   5H    basis set group =>   3
Atom   6H    basis set group =>   3
Atom   7H    basis set group =>   3

-------------------------
BASIS SET IN INPUT FORMAT
-------------------------

 # Basis set for element : H 
 NewGTO H 
 S 3 
   1      13.0107010000      0.0334854848
   2       1.9622572000      0.2347218709
   3       0.4445379600      0.8137702853
 S 1 
   1       0.1219496200      1.0000000000
 P 1 
   1       0.8000000000      1.0000000000
  end;

 # Basis set for element : C 
 NewGTO C 
 S 5 
   1    1238.4016938000      0.0055173650
   2     186.2900499200      0.0410888285
   3      42.2511763460      0.1822538213
   4      11.6765579320      0.4682845944
   5       3.5930506482      0.4457581734
 S 1 
   1       0.4024514736      1.0000000000
 S 1 
   1       0.1309018267      1.0000000000
 P 3 
   1       9.4680970621      0.0568883320
   2       2.0103545142      0.3129405934
   3       0.5477100471      0.7606501651
 P 1 
   1       0.1526861379      1.0000000000
 D 1 
   1       0.8000000000      1.0000000000
  end;

 # Basis set for element : Cl
 NewGTO Cl
 S 5 
   1   10449.8275660000      0.0054265952
   2    1571.7365221000      0.0406263782
   3     357.1206552300      0.1835974786
   4     100.2518593500      0.4743894876
   5      30.8127275540      0.4373518111
 S 3 
   1      51.9237894340     -0.0927541549
   2       5.7045760975      0.5638082555
   3       2.3508376809      0.5036704463
 S 1 
   1       0.4460512467      1.0000000000
 S 1 
   1       0.1684885619      1.0000000000
 P 5 
   1     307.6679056900     -0.0088797025
   2      72.1020155150     -0.0642840717
   3      22.5326802620     -0.2428873974
   4       7.8991765444     -0.4834083637
   5       2.8767268321     -0.3895256388
 P 1 
   1       0.7745936396      1.0000000000
 P 1 
   1       0.2103769970      1.0000000000
 D 1 
   1       0.6500000000      1.0000000000
  end;


Checking for AutoStart:
The File: D:\hty\creat\code\github\orcacal\Test\ORCA_cal\ORCA_structure\Chloroform_1\input.gbw exists
Trying to determine its content:
     ... Fine, the file contains calculation information
     ... Fine, the calculation information was read
     ... Fine, the file contains a basis set
     ... Fine, the basis set was read
     ... Fine, the file contains a geometry
     ... Fine, the geometry was read
     ... The file does not contain orbitals - skipping AutoStart


           ************************************************************
           *        Program running with 20 parallel MPI-processes    *
           *              working on a common directory               *
           ************************************************************
------------------------------------------------------------------------------
                             ORCA STARTUP CALCULATIONS
------------------------------------------------------------------------------
------------------------------------------------------------------------------
                   ___                                                        
                  /   \      - P O W E R E D   B Y -                         
                 /     \                                                     
                 |  |  |   _    _      __       _____    __    __             
                 |  |  |  | |  | |    /  \     |  _  \  |  |  /  |          
                  \  \/   | |  | |   /    \    | | | |  |  | /  /          
                 / \  \   | |__| |  /  /\  \   | |_| |  |  |/  /          
                |  |  |   |  __  | /  /__\  \  |    /   |      \           
                |  |  |   | |  | | |   __   |  |    \   |  |\   \          
                \     /   | |  | | |  |  |  |  | |\  \  |  | \   \       
                 \___/    |_|  |_| |__|  |__|  |_| \__\ |__|  \__/        
                                                                              
                      - O R C A' S   B I G   F R I E N D -                    
                                      &                                       
                       - I N T E G R A L  F E E D E R -                       
                                                                              
 v1 FN, 2020, v2 2021, v3 2022-2024                                           
------------------------------------------------------------------------------


----------------------
SHARK INTEGRAL PACKAGE
----------------------

Number of atoms                             ...      8
Number of basis functions                   ...     84
Number of shells                            ...     40
Maximum angular momentum                    ...      2
Integral batch strategy                     ... SHARK/LIBINT Hybrid
RI-J (if used) integral strategy            ... SPLIT-RIJ (Revised 2003 algorithm where possible)
Printlevel                                  ...      1
Contraction scheme used                     ... SEGMENTED contraction
Prescreening option                         ... SCHWARTZ
   Thresh                                   ... 1.000e-10
   Tcut                                     ... 1.000e-11
   Tpresel                                  ... 1.000e-11 
Coulomb Range Separation                    ... NOT USED
Exchange Range Separation                   ... NOT USED
Multipole approximations                    ... NOT USED
Finite Nucleus Model                        ... NOT USED
CABS basis                                  ... NOT available
Auxiliary Coulomb fitting basis             ... NOT available
Auxiliary J/K fitting basis                 ... NOT available
Auxiliary Correlation fitting basis         ... NOT available
Auxiliary 'external' fitting basis          ... NOT available

Checking pre-screening integrals            ... done (  0.0 sec) Dimension = 40
Check shell pair data                       ... done (  0.0 sec)
Shell pair information
Shell pair cut-off parameter TPreSel        ...   1.0e-11
Total number of shell pairs                 ...       820
Shell pairs after pre-screening             ...       797
Total number of primitive shell pairs       ...      3324
Primitive shell pairs kept                  ...      2497
          la=0 lb=0:    243 shell pairs
          la=1 lb=0:    298 shell pairs
          la=1 lb=1:    102 shell pairs
          la=2 lb=0:     88 shell pairs
          la=2 lb=1:     56 shell pairs
          la=2 lb=2:     10 shell pairs

Calculating one electron integrals          ... done (  0.0 sec)
Calculating Nuclear repulsion               ... done (  0.0 sec) ENN=    209.098278221098 Eh

Diagonalization of the overlap matrix:
Smallest eigenvalue                        ... 3.411e-03
Time for diagonalization                   ...    0.001 sec
Threshold for overlap eigenvalues          ... 1.000e-07
Number of eigenvalues below threshold      ... 0
Time for construction of square roots      ...    0.003 sec
Total time needed                          ...    0.020 sec

-------------------
DFT GRID GENERATION
-------------------

General Integration Accuracy     IntAcc      ... 4.388
Radial Grid Type                 RadialGrid  ... OptM3 with GC (2021)
Angular Grid (max. ang.)         AngularGrid ... 4 (Lebedev-302)
Angular grid pruning method      GridPruning ... 4 (adaptive)
Weight generation scheme         WeightScheme... mBecke (2022)
Basis function cutoff            BFCut       ... 1.0000e-10
Integration weight cutoff        WCut        ... 1.0000e-14
Partially contracted basis set               ... off
Rotationally invariant grid construction     ... off
Angular grids for H and He will be reduced by one unit

Total number of grid points                  ...    39793
Total number of batches                      ...      627
Average number of points per batch           ...       63
Average number of grid points per atom       ...     4974
Initializing property integral containers    ... done (  0.0 sec)

SHARK setup successfully completed in   0.4 seconds

Maximum memory used throughout the entire STARTUP-calculation: 9.8 MB


           ************************************************************
           *        Program running with 20 parallel MPI-processes    *
           *              working on a common directory               *
           ************************************************************
-------------------------------------------------------------------------------
                                 ORCA GUESS
                   Start orbitals & Density for SCF / CASSCF
-------------------------------------------------------------------------------

------------
SCF SETTINGS
------------
Hamiltonian:
 Ab initio Hamiltonian  Method          .... Hartree-Fock(GTOs)


General Settings:
 Integral files         IntName         .... D:\hty\creat\code\github\orcacal\Test\ORCA_cal\ORCA_structure\Chloroform_1\input
 Hartree-Fock type      HFTyp           .... RHF
 Total Charge           Charge          ....    0
 Multiplicity           Mult            ....    1
 Number of Electrons    NEL             ....   50
 Basis Dimension        Dim             ....   84
 Nuclear Repulsion      ENuc            ....    209.0982782211 Eh

Convergence Acceleration:
 AO-DIIS                CNVDIIS         .... on
   Start iteration      DIISMaxIt       ....    12
   Startup error        DIISStart       ....  0.200000
   # of expansion vecs  DIISMaxEq       ....     5
   Bias factor          DIISBfac        ....   1.050
   Max. coefficient     DIISMaxC        ....  10.000
 MO-DIIS                CNVKDIIS        .... off
 Trust-Rad. Augm. Hess. CNVTRAH         .... auto
   Auto Start mean grad. ratio tolernc. ....  1.125000
   Auto Start start iteration           ....    50
   Auto Start num. interpolation iter.  ....    10
   Max. Number of Micro iterations      ....    24
   Max. Number of Macro iterations      .... Maxiter - #DIIS iter
   Number of Davidson start vectors     ....     2
   Converg. threshold    (grad. norm)   ....   5.000e-05
   Grad. Scal. Fac. for Micro threshold ....   0.100
   Minimum threshold for Micro iter.    ....   1.000e-02
   NR start threshold (gradient norm)   ....   1.000e-04
   Initial trust radius                 ....   0.400
   Minimum AH scaling param. (alpha)    ....   1.000
   Maximum AH scaling param. (alpha)    .... 1000.000
   Quad. conv. algorithm                .... NR
   White noise on init. David. guess    .... on
   Maximum white noise                  ....   0.010
   Pseudo random numbers                .... off
   Inactive MOs                         .... canonical
   Orbital update algorithm             .... Taylor
   Preconditioner                       .... Diag
   Full preconditioner red. dimension   ....   250
 SOSCF                  CNVSOSCF        .... on
   Start iteration      SOSCFMaxIt      ....   150
   Startup grad/error   SOSCFStart      ....  0.003300
   Hessian update       SOSCFHessUp     .... L-BFGS
 Level Shifting         CNVShift        .... on
   Level shift para.    LevelShift      ....    0.2500
   Turn off err/grad.   ShiftErr        ....    0.0010
 Zerner damping         CNVZerner       .... off
 Static damping         CNVDamp         .... on
   Fraction old density DampFac         ....    0.7000
   Max. Damping (<1)    DampMax         ....    0.9800
   Min. Damping (>=0)   DampMin         ....    0.0000
   Turn off err/grad.   DampErr         ....    0.1000

SCF Procedure:
 Maximum # iterations   MaxIter         ....   125
 SCF integral mode      SCFMode         .... Direct
   Integral package                     .... SHARK and LIBINT hybrid scheme
 Reset frequency        DirectResetFreq ....    20
 Integral Threshold     Thresh          ....  1.000e-10 Eh
 Primitive CutOff       TCut            ....  1.000e-11 Eh

Convergence Tolerance:
 Convergence Check Mode ConvCheckMode   .... Total+1el-Energy
 Convergence forced     ConvForced      .... 0
 Energy Change          TolE            ....  1.000e-06 Eh
 1-El. energy change                    ....  1.000e-03 Eh
 Orbital Gradient       TolG            ....  5.000e-05
 Orbital Rotation angle TolX            ....  5.000e-05
 DIIS Error             TolErr          ....  1.000e-06

------------------------------
INITIAL GUESS: MODEL POTENTIAL
------------------------------
Loading Hartree-Fock densities                     ... done
Calculating cut-offs                               ... done
Initializing the effective Hamiltonian             ... done
Setting up the integral package (SHARK)            ... done
Starting the Coulomb interaction                   ... done (   0.1 sec)
Making the grid                                    ... done (   0.1 sec)
Mapping shells                                     ... done
Starting the XC term evaluation                    ... done (   0.0 sec)
Transforming the Hamiltonian                       ... done (   0.0 sec)
Diagonalizing the Hamiltonian                      ... done (   0.0 sec)
Back transforming the eigenvectors                 ... done (   0.0 sec)
Now organizing SCF variables                       ... done
                      ------------------
                      INITIAL GUESS DONE (   0.3 sec)
                      ------------------
----------------------
INITIAL GUESS ORBITALS
----------------------
                      0         1         2         3         4         5   
                 -100.28915 -100.28910  -9.95796  -9.93469  -9.18277  -9.18272
                   2.00000   2.00000   2.00000   2.00000   2.00000   2.00000
                  --------  --------  --------  --------  --------  --------
  0C   1s         0.000000  0.000077 -0.004398  0.985379  0.000008 -0.000520
  0C   2s        -0.000000 -0.000793 -0.001675  0.063453 -0.000035  0.002300
  0C   3s         0.000000  0.004182  0.010379 -0.069359  0.000168 -0.011140
  0C   1pz       -0.000001  0.000061  0.000239  0.002606 -0.000035 -0.000322
  0C   1px       -0.000000 -0.000004  0.002003 -0.000866 -0.000007  0.000229
  0C   1py        0.000011  0.000008  0.000051  0.000318  0.000320 -0.000033
  0C   2pz       -0.000193 -0.000703  0.000628  0.005006  0.000551  0.001737
  0C   2px       -0.000016  0.001292 -0.004597  0.006899  0.000112 -0.004231
  0C   2py        0.001529 -0.000075  0.000029  0.000705 -0.004580  0.000104
  0C   1dz2      -0.000025  0.000076  0.001146  0.002235  0.000137 -0.000363
  0C   1dxz       0.000007  0.000056 -0.000511  0.001014 -0.000051 -0.000303
  0C   1dyz       0.000113  0.000026  0.000012  0.000591 -0.000591 -0.000147
  0C   1dx2y2    -0.000013  0.000071 -0.001846  0.000673  0.000072 -0.000420
  0C   1dxy      -0.000068  0.000009 -0.000103  0.000141  0.000493 -0.000040
  1Cl  1s         0.702483 -0.702653 -0.000007 -0.000025 -0.224001  0.217363
  1Cl  2s         0.017007 -0.016952  0.000109  0.000383  0.728998 -0.707517
  1Cl  3s        -0.008140  0.007921 -0.001223 -0.002484  0.046266 -0.043992
  1Cl  4s         0.005609 -0.005925  0.002151  0.012138 -0.021991  0.021634
  1Cl  1pz       -0.000014  0.000028  0.000003 -0.000043 -0.000313  0.000268
  1Cl  1px        0.000036 -0.000042  0.000075  0.000087  0.000431 -0.000403
  1Cl  1py       -0.000084  0.000048 -0.000037 -0.000213 -0.000832  0.000904
  1Cl  2pz       -0.000076  0.000144  0.000024 -0.000024  0.000306 -0.000524
  1Cl  2px        0.000186 -0.000217  0.000537  0.000266 -0.000697  0.000771
  1Cl  2py       -0.000430  0.000258 -0.000260 -0.000736  0.001588 -0.000961
  1Cl  3pz        0.000328 -0.000481 -0.000115  0.000299 -0.000952  0.001480
  1Cl  3px       -0.000616  0.000713 -0.001751 -0.002327  0.001892 -0.002082
  1Cl  3py        0.001170 -0.001273  0.000975  0.004471 -0.003735  0.003492
  1Cl  1dz2      -0.000078  0.000083 -0.000366  0.000488  0.000171 -0.000127
  1Cl  1dxz      -0.000076 -0.000004  0.000043  0.000391  0.000165  0.000054
  1Cl  1dyz       0.000049 -0.000119 -0.000002 -0.001103 -0.000029  0.000275
  1Cl  1dx2y2    -0.000069  0.000085  0.000323  0.000696  0.000132 -0.000093
  1Cl  1dxy      -0.000100  0.000141 -0.000361  0.000815  0.000146 -0.000255
  2Cl  1s        -0.702646 -0.702490 -0.000007 -0.000025  0.217338  0.224024
  2Cl  2s        -0.017011 -0.016948  0.000109  0.000383 -0.707313 -0.729196
  2Cl  3s         0.008142  0.007919 -0.001224 -0.002485 -0.044918 -0.045368
  2Cl  4s        -0.005611 -0.005924  0.002153  0.012139  0.021328  0.022288
  2Cl  1pz        0.000035  0.000039 -0.000006 -0.000095  0.000504  0.000509
  2Cl  1px       -0.000034 -0.000041  0.000074  0.000083 -0.000400 -0.000394
  2Cl  1py       -0.000079 -0.000040  0.000038  0.000197 -0.000706 -0.000833
  2Cl  2pz        0.000181  0.000204 -0.000043 -0.000206 -0.000669 -0.000768
  2Cl  2px       -0.000177 -0.000212  0.000531  0.000251  0.000642  0.000772
  2Cl  2py       -0.000402 -0.000218  0.000269  0.000713  0.001452  0.000861
  2Cl  3pz       -0.000609 -0.000784  0.000136  0.001406  0.001783  0.002361
  2Cl  3px        0.000593  0.000688 -0.001730 -0.002234 -0.001755 -0.002066
  2Cl  3py        0.001065  0.001128 -0.001010 -0.004306 -0.003327 -0.003160
  2Cl  1dz2       0.000047  0.000021 -0.000350 -0.000056 -0.000134  0.000000
  2Cl  1dxz       0.000097  0.000028 -0.000049  0.000552 -0.000194 -0.000010
  2Cl  1dyz       0.000095  0.000160 -0.000075  0.001351 -0.000124 -0.000322
  2Cl  1dx2y2     0.000054  0.000056  0.000317  0.000413 -0.000116 -0.000032
  2Cl  1dxy      -0.000075 -0.000135  0.000374 -0.000672  0.000088  0.000262
  3C   1s         0.000000  0.000036  0.984635  0.005413  0.000002 -0.000134
  3C   2s        -0.000000 -0.000429  0.066557 -0.002828 -0.000020  0.001365
  3C   3s         0.000000 -0.000003 -0.057534  0.024544  0.000013 -0.000868
  3C   1pz        0.000014  0.000041 -0.000322 -0.000332 -0.000045 -0.000147
  3C   1px        0.000001 -0.000170 -0.001730 -0.002288 -0.000012  0.000508
  3C   1py       -0.000114  0.000003 -0.000059 -0.000066  0.000377 -0.000007
  3C   2pz       -0.000102 -0.000374 -0.000266 -0.000057  0.000312  0.001285
  3C   2px       -0.000008  0.000641 -0.003684  0.010298  0.000067 -0.002600
  3C   2py        0.000805 -0.000040 -0.000072  0.000102 -0.002632  0.000094
  3C   1dz2      -0.000001  0.000012  0.000626  0.000871 -0.000003 -0.000002
  3C   1dxz       0.000006  0.000034 -0.000446 -0.000765 -0.000009 -0.000059
  3C   1dyz       0.000004  0.000003 -0.000018 -0.000045  0.000014 -0.000003
  3C   1dx2y2     0.000001  0.000002 -0.001195 -0.001795 -0.000003 -0.000014
  3C   1dxy      -0.000049  0.000004 -0.000080 -0.000135  0.000074 -0.000007
  4H   1s        -0.000000 -0.000420 -0.000164 -0.004896 -0.000019  0.001250
  4H   2s        -0.000000 -0.000211  0.000064  0.011948 -0.000005  0.000327
  4H   1pz        0.000003  0.000005 -0.000080  0.004573  0.000004  0.000024
  4H   1px        0.000000 -0.000055 -0.000583  0.000678 -0.000001  0.000105
  4H   1py       -0.000024  0.000000 -0.000016  0.000584 -0.000037  0.000004
  5H   1s        -0.000000 -0.000276 -0.004336 -0.000701 -0.000014  0.000920
  5H   2s        -0.000000  0.000045  0.010433 -0.000164  0.000004 -0.000260
  5H   1pz        0.000012  0.000033 -0.004390  0.000190 -0.000033 -0.000129
  5H   1px        0.000001 -0.000119 -0.000367  0.000709 -0.000007  0.000306
  5H   1py       -0.000096  0.000003 -0.000557  0.000032  0.000275 -0.000009
  6H   1s         0.000270 -0.000004 -0.004590 -0.000339 -0.000845  0.000028
  6H   2s         0.000308  0.000386  0.010013 -0.000188 -0.000838 -0.001291
  6H   1pz       -0.000039 -0.000013  0.002384  0.000145  0.000098  0.000034
  6H   1px        0.000083 -0.000032 -0.001503  0.000351 -0.000202  0.000096
  6H   1py       -0.000010  0.000091 -0.003538  0.000059  0.000058 -0.000263
  7H   1s        -0.000270 -0.000004 -0.004590 -0.000339  0.000844  0.000054
  7H   2s        -0.000308  0.000386  0.010013 -0.000188  0.000876 -0.001265
  7H   1pz        0.000040  0.000010  0.001435  0.000154 -0.000109 -0.000036
  7H   1px       -0.000083 -0.000030 -0.001584  0.000352  0.000199  0.000096
  7H   1py       -0.000002 -0.000092  0.003986 -0.000013  0.000028  0.000266
                      6         7         8         9        10        11   
                  -7.04015  -7.04013  -7.03845  -7.03844  -7.03843  -7.03842
                   2.00000   2.00000   2.00000   2.00000   2.00000   2.00000
                  --------  --------  --------  --------  --------  --------
  0C   1s        -0.000043 -0.000230  0.000009 -0.000001 -0.000008 -0.000039
  0C   2s         0.000237  0.001268 -0.000085 -0.000016  0.000036  0.000448
  0C   3s        -0.002255 -0.012179  0.000389  0.000703  0.000529 -0.002204
  0C   1pz       -0.000045 -0.000196  0.000027 -0.000175 -0.000213 -0.000234
  0C   1px       -0.000005 -0.000015 -0.000021 -0.000187 -0.000213  0.000299
  0C   1py        0.000027 -0.000026  0.000304  0.000124 -0.000106  0.000028
  0C   2pz       -0.000099  0.001802 -0.000387  0.001733  0.002114  0.002573
  0C   2px       -0.000492 -0.002508  0.000159  0.001226  0.001350 -0.001883
  0C   2py        0.003721 -0.000533 -0.002398 -0.001262  0.001084 -0.000165
  0C   1dz2      -0.000238 -0.000393 -0.000003  0.000033  0.000043  0.000035
  0C   1dxz       0.000004 -0.000418  0.000011  0.000026  0.000023 -0.000043
  0C   1dyz       0.000694 -0.000306 -0.000012  0.000008 -0.000007 -0.000002
  0C   1dx2y2    -0.000185 -0.000558  0.000014 -0.000005 -0.000015 -0.000028
  0C   1dxy      -0.000700  0.000064 -0.000023  0.000007  0.000008 -0.000006
  1Cl  1s        -0.000579 -0.000383 -0.000008  0.000004  0.000002  0.000009
  1Cl  2s         0.002311  0.001477  0.000076 -0.000007 -0.000012 -0.000080
  1Cl  3s        -0.003447 -0.002062 -0.000347  0.000010  0.000016  0.000365
  1Cl  4s         0.006190  0.005290 -0.000626 -0.000545  0.000329  0.000483
  1Cl  1pz        0.223289  0.157431 -0.406265 -0.704132 -0.257332 -0.395710
  1Cl  1px       -0.348482 -0.242695  0.273446 -0.648539  0.084904  0.524661
  1Cl  1py        0.692051  0.473024  0.266130 -0.098376  0.127521  0.398011
  1Cl  2pz       -0.013045 -0.009276  0.023295  0.040187  0.014693  0.022517
  1Cl  2px        0.020449  0.014251 -0.015708  0.037094 -0.004833 -0.029958
  1Cl  2py       -0.040675 -0.027502 -0.015434  0.005661 -0.007256 -0.022544
  1Cl  3pz        0.003042  0.002414 -0.004372 -0.007110 -0.002648 -0.003689
  1Cl  3px       -0.004896 -0.003633  0.003210 -0.006414  0.000493  0.005037
  1Cl  3py        0.009574  0.006970  0.002592 -0.001304  0.001339  0.004124
  1Cl  1dz2      -0.000049 -0.000064 -0.000027 -0.000040 -0.000074  0.000014
  1Cl  1dxz      -0.000072  0.000068  0.000009  0.000049 -0.000001  0.000036
  1Cl  1dyz      -0.000025  0.000146 -0.000099 -0.000058 -0.000067  0.000027
  1Cl  1dx2y2    -0.000012 -0.000053 -0.000109  0.000078  0.000060 -0.000063
  1Cl  1dxy      -0.000015 -0.000146  0.000108 -0.000013 -0.000097 -0.000037
  2Cl  1s         0.000403 -0.000564  0.000014  0.000001 -0.000006  0.000008
  2Cl  2s        -0.001629  0.002203 -0.000084 -0.000010  0.000023 -0.000086
  2Cl  3s         0.002487 -0.003154  0.000283  0.000013 -0.000006  0.000426
  2Cl  4s        -0.003877  0.007173  0.000293  0.000446 -0.000161  0.000739
  2Cl  1pz       -0.279472  0.411332  0.495418  0.026310 -0.672433 -0.112243
  2Cl  1px        0.226178 -0.333571 -0.357444  0.162679 -0.636418  0.486332
  2Cl  1py        0.422021 -0.608150  0.523838 -0.071427 -0.107049 -0.345025
  2Cl  2pz        0.016350 -0.024067 -0.028300 -0.001495  0.038369  0.006368
  2Cl  2px       -0.013268  0.019594  0.020480 -0.009280  0.036433 -0.027738
  2Cl  2py       -0.024946  0.035489 -0.030097  0.004063  0.006040  0.019451
  2Cl  3pz       -0.003651  0.005919  0.005150  0.000244 -0.006776 -0.000728
  2Cl  3px        0.003101 -0.004916 -0.003872  0.001245 -0.006504  0.004499
  2Cl  3py        0.005750 -0.008799  0.005301 -0.000854 -0.000874 -0.003567
  2Cl  1dz2       0.000051 -0.000014  0.000070 -0.000075 -0.000076  0.000046
  2Cl  1dxz       0.000080  0.000003 -0.000041 -0.000043  0.000026  0.000010
  2Cl  1dyz      -0.000057 -0.000158 -0.000046  0.000027  0.000050 -0.000049
  2Cl  1dx2y2     0.000009 -0.000022  0.000119  0.000044  0.000087 -0.000022
  2Cl  1dxy       0.000063  0.000148  0.000065  0.000090  0.000069  0.000073
  3C   1s        -0.000017 -0.000092 -0.000001 -0.000039 -0.000047  0.000051
  3C   2s         0.000203  0.001065  0.000028  0.000519  0.000618 -0.000785
  3C   3s         0.000022  0.000056 -0.000164  0.000322  0.000470  0.000679
  3C   1pz        0.000017 -0.000053 -0.000018 -0.000018 -0.000067  0.000083
  3C   1px        0.000088  0.000452 -0.000001  0.000169  0.000203 -0.000206
  3C   1py       -0.000209  0.000036  0.000098 -0.000187  0.000156  0.000013
  3C   2pz       -0.000067  0.000851  0.000381 -0.000473 -0.000143 -0.002480
  3C   2px       -0.000110 -0.000504 -0.000174 -0.000494 -0.000456  0.001577
  3C   2py        0.001595 -0.000162  0.000289  0.002479 -0.002005 -0.000107
  3C   1dz2       0.000003 -0.000048  0.000001 -0.000012  0.000008 -0.000010
  3C   1dxz       0.000004 -0.000003  0.000009 -0.000034 -0.000036 -0.000068
  3C   1dyz      -0.000052  0.000018  0.000004  0.000053 -0.000044  0.000013
  3C   1dx2y2     0.000034  0.000137 -0.000014 -0.000024 -0.000005  0.000084
  3C   1dxy      -0.000039  0.000011  0.000054  0.000046 -0.000037  0.000005
  4H   1s         0.000193  0.001115  0.000132 -0.000567 -0.000735 -0.000328
  4H   2s         0.000201  0.001120  0.000067 -0.000240 -0.000311 -0.000260
  4H   1pz       -0.000035 -0.000186  0.000022 -0.000080 -0.000130 -0.000087
  4H   1px        0.000007  0.000030 -0.000041 -0.000034 -0.000022  0.000281
  4H   1py       -0.000019 -0.000020  0.000075 -0.000072  0.000041 -0.000001
  5H   1s         0.000088  0.000461  0.000042  0.000291  0.000332 -0.000593
  5H   2s         0.000065  0.000472  0.000289 -0.000734 -0.001020 -0.001082
  5H   1pz        0.000021 -0.000001  0.000013 -0.000063 -0.000143 -0.000030
  5H   1px        0.000046  0.000235  0.000002  0.000078  0.000089 -0.000113
  5H   1py       -0.000176  0.000033  0.000057 -0.000238  0.000173 -0.000010
  6H   1s         0.000426 -0.000014 -0.000222  0.000531 -0.000416  0.000034
  6H   2s         0.000802 -0.000603  0.000348  0.000699 -0.000649  0.001254
  6H   1pz       -0.000071  0.000000 -0.000055 -0.000107  0.000116  0.000039
  6H   1px        0.000179  0.000049 -0.000015  0.000097  0.000013 -0.000070
  6H   1py       -0.000037 -0.000110  0.000001 -0.000088 -0.000006  0.000223
  7H   1s        -0.000403  0.000132  0.000205 -0.000503  0.000460  0.000037
  7H   2s        -0.000960 -0.000306 -0.000662 -0.000930  0.000523  0.001008
  7H   1pz        0.000066 -0.000050  0.000018  0.000133 -0.000085  0.000120
  7H   1px       -0.000149  0.000106  0.000019 -0.000002  0.000099 -0.000065
  7H   1py        0.000018  0.000109  0.000062  0.000038  0.000063 -0.000198
                     12        13        14        15        16        17   
                  -0.87515  -0.79042  -0.75702  -0.61495  -0.51396  -0.49707
                   2.00000   2.00000   2.00000   2.00000   2.00000   2.00000
                  --------  --------  --------  --------  --------  --------
  0C   1s         0.168758  0.000009  0.047082  0.184841 -0.034402 -0.000049
  0C   2s        -0.337059 -0.000028 -0.091415 -0.409553  0.072005  0.000114
  0C   3s        -0.087448  0.000122 -0.071287 -0.098386  0.084449  0.000148
  0C   1pz        0.040472 -0.018818 -0.028813 -0.142084 -0.297789 -0.028031
  0C   1px       -0.001795 -0.001567  0.164512 -0.004117 -0.075212 -0.002130
  0C   1py        0.005081  0.149353 -0.001902 -0.017961 -0.038432  0.221374
  0C   2pz        0.020969 -0.004830 -0.003407 -0.045996 -0.161360 -0.015884
  0C   2px        0.010095 -0.000465  0.066740 -0.018499 -0.033173 -0.001393
  0C   2py        0.002733  0.038417  0.000321 -0.005994 -0.020721  0.126600
  0C   1dz2       0.006811  0.002300  0.002759 -0.003211 -0.003765  0.001456
  0C   1dxz       0.003300 -0.001128 -0.005224  0.001104  0.006021  0.001215
  0C   1dyz       0.001913 -0.010392 -0.001029 -0.000432 -0.001056 -0.006547
  0C   1dx2y2     0.002843  0.001119 -0.012401  0.002063 -0.002301  0.001031
  0C   1dxy       0.000471  0.009863 -0.000923  0.000175  0.000706 -0.008992
  1Cl  1s        -0.043592 -0.062045  0.033430  0.027611 -0.011035  0.014284
  1Cl  2s         0.268106  0.384433 -0.207789 -0.173385  0.069657 -0.090575
  1Cl  3s        -0.358606 -0.525331  0.286943  0.241632 -0.090467  0.125600
  1Cl  4s        -0.162558 -0.248495  0.140781  0.142507 -0.105621  0.121705
  1Cl  1pz       -0.009773 -0.009780  0.000535 -0.027366 -0.023659 -0.029990
  1Cl  1px        0.017067  0.012937  0.006982  0.017972 -0.040293  0.054208
  1Cl  1py       -0.034321 -0.016766  0.007043 -0.042396  0.049685 -0.049203
  1Cl  2pz       -0.015346 -0.016648  0.001586 -0.044517 -0.039537 -0.052005
  1Cl  2px        0.027157  0.021830  0.010026  0.029859 -0.068408  0.091586
  1Cl  2py       -0.055184 -0.029249  0.012966 -0.070266  0.086035 -0.084208
  1Cl  3pz       -0.015224 -0.011567 -0.000867 -0.047234 -0.044182 -0.041706
  1Cl  3px        0.021413  0.016540  0.009823  0.028345 -0.061633  0.089372
  1Cl  3py       -0.042955 -0.020404  0.008569 -0.066605  0.064523 -0.071027
  1Cl  1dz2       0.008229  0.003773 -0.000681  0.001887 -0.012965  0.005567
  1Cl  1dxz       0.004319  0.003927  0.000312  0.006374  0.003463  0.007455
  1Cl  1dyz      -0.008446 -0.007508  0.001142 -0.014287 -0.008420 -0.007987
  1Cl  1dx2y2     0.009744  0.003368 -0.007334  0.008718 -0.002910 -0.001920
  1Cl  1dxy       0.012908  0.009747  0.001610  0.009530 -0.014942  0.012945
  2Cl  1s        -0.043594  0.062054  0.033418  0.027609 -0.011015 -0.014315
  2Cl  2s         0.268120 -0.384490 -0.207716 -0.173376  0.069532  0.090776
  2Cl  3s        -0.358651  0.525422  0.286864  0.241634 -0.090298 -0.125944
  2Cl  4s        -0.162509  0.248509  0.140667  0.142474 -0.105488 -0.121731
  2Cl  1pz       -0.018049  0.013702  0.002261 -0.037058 -0.010522  0.041472
  2Cl  1px        0.016354 -0.012579  0.007145  0.017174 -0.039121 -0.053295
  2Cl  1py        0.031164 -0.014069 -0.006535  0.034650 -0.054777 -0.041494
  2Cl  2pz       -0.028685  0.023526  0.004770 -0.060604 -0.016843  0.071628
  2Cl  2px        0.025991 -0.021183  0.010341  0.028547 -0.066397 -0.090039
  2Cl  2py        0.050191 -0.024622 -0.011937  0.057640 -0.094469 -0.070807
  2Cl  3pz       -0.025450  0.016315  0.001224 -0.062315 -0.026671  0.058404
  2Cl  3px        0.020555 -0.016147  0.009997  0.027079 -0.059998 -0.088028
  2Cl  3py        0.038245 -0.017237 -0.008297  0.053385 -0.074639 -0.060659
  2Cl  1dz2       0.003397 -0.000086  0.000246 -0.004741 -0.015107 -0.001786
  2Cl  1dxz       0.007120 -0.006051  0.000776  0.008170 -0.000432 -0.010266
  2Cl  1dyz       0.013354 -0.009119 -0.003025  0.015603  0.001244 -0.009144
  2Cl  1dx2y2     0.007458 -0.001622 -0.006723  0.005251 -0.004796  0.003560
  2Cl  1dxy      -0.011069  0.008344 -0.001801 -0.007417  0.015141  0.010861
  3C   1s         0.098013  0.000020  0.225733 -0.094809  0.012265  0.000027
  3C   2s        -0.195774 -0.000021 -0.469412  0.203632 -0.021727 -0.000057
  3C   3s        -0.024413 -0.000158 -0.071963  0.030711 -0.052576 -0.000106
  3C   1pz       -0.004311 -0.003475 -0.014995 -0.084752 -0.303775 -0.052914
  3C   1px       -0.062807 -0.000299 -0.019921 -0.189611  0.216096 -0.004515
  3C   1py       -0.001213  0.027536 -0.002117 -0.012633 -0.036173  0.417574
  3C   2pz       -0.005756 -0.001316 -0.001366 -0.042072 -0.109817 -0.019229
  3C   2px       -0.007541 -0.000168  0.011013 -0.061429  0.053908 -0.001715
  3C   2py       -0.000769  0.010445 -0.000080 -0.005912 -0.013425  0.149911
  3C   1dz2       0.003287 -0.000024  0.001045  0.004468  0.003545 -0.002347
  3C   1dxz      -0.001593 -0.000392 -0.002186 -0.006702 -0.002308  0.000228
  3C   1dyz      -0.000011  0.000103 -0.000151 -0.000156  0.001901  0.010675
  3C   1dx2y2    -0.005631 -0.000083 -0.002721 -0.008487  0.008983 -0.001310
  3C   1dxy      -0.000320  0.003091 -0.000335 -0.001014 -0.000096 -0.002772
  4H   1s        -0.073993 -0.000006 -0.027887 -0.223831 -0.165813 -0.000003
  4H   2s        -0.006753 -0.000037  0.001296 -0.028430 -0.020765 -0.000084
  4H   1pz        0.011526 -0.000235  0.003583  0.019007  0.007694 -0.000285
  4H   1px        0.001987 -0.000015  0.003065  0.004091  0.001736 -0.000015
  4H   1py        0.001478  0.001881  0.000481  0.002443  0.000984  0.002256
  5H   1s        -0.047006 -0.000005 -0.130225  0.136320  0.158061  0.000173
  5H   2s        -0.005375 -0.000002 -0.016265  0.019899  0.026487 -0.000196
  5H   1pz       -0.006825 -0.000082 -0.017424  0.012654  0.004906 -0.001377
  5H   1px       -0.002574 -0.000009 -0.002815 -0.001077  0.009379 -0.000124
  5H   1py       -0.000893  0.000617 -0.002243  0.001605  0.000725  0.010855
  6H   1s        -0.042413 -0.008889 -0.137061  0.099549 -0.150881 -0.230842
  6H   2s        -0.004118  0.002967 -0.016063  0.025487 -0.029986 -0.044107
  6H   1pz        0.003614  0.000351  0.009209 -0.007083 -0.000642  0.008387
  6H   1px       -0.004080 -0.000769 -0.007392 -0.000273 -0.000808 -0.009062
  6H   1py       -0.004891 -0.000107 -0.014138  0.008437 -0.011370 -0.003781
  7H   1s        -0.042420  0.008873 -0.137074  0.099636 -0.151022  0.230739
  7H   2s        -0.004177 -0.002928 -0.016080  0.025459 -0.030006  0.044283
  7H   1pz        0.002300 -0.000314  0.005433 -0.004775 -0.003443 -0.007195
  7H   1px       -0.004194  0.000777 -0.007704 -0.000093 -0.001046  0.009166
  7H   1py        0.005548 -0.000171  0.015822 -0.009941  0.010838 -0.005554
                     18        19        20        21        22        23   
                  -0.47239  -0.42884  -0.41790  -0.33771  -0.32585  -0.31505
                   2.00000   2.00000   2.00000   2.00000   2.00000   2.00000
                  --------  --------  --------  --------  --------  --------
  0C   1s        -0.015592 -0.005370  0.000001  0.007439 -0.000018  0.007923
  0C   2s         0.027709  0.010795 -0.000000 -0.015291  0.000149 -0.006357
  0C   3s         0.045613  0.049543  0.000043 -0.006982 -0.000378 -0.077953
  0C   1pz        0.029618 -0.279372 -0.038263 -0.089647 -0.001724 -0.142737
  0C   1px        0.383263  0.061652 -0.003114  0.090260 -0.000066 -0.087350
  0C   1py        0.007596 -0.034584  0.303505 -0.010384  0.012706 -0.018968
  0C   2pz       -0.005344 -0.126262 -0.016622  0.008745  0.007175 -0.021594
  0C   2px        0.166837  0.009673 -0.001469 -0.021999  0.000677  0.034269
  0C   2py        0.000933 -0.015845  0.132042  0.001208 -0.055896 -0.002443
  0C   1dz2       0.004100 -0.011313  0.002560 -0.011509  0.003500 -0.022552
  0C   1dxz      -0.001698 -0.019099 -0.002800  0.003211  0.001532  0.001520
  0C   1dyz      -0.000138 -0.002798 -0.011582 -0.005848 -0.015737 -0.004001
  0C   1dx2y2    -0.008135 -0.000668  0.000983 -0.026092  0.002224  0.007811
  0C   1dxy      -0.000376 -0.002432  0.023230 -0.000142 -0.010677  0.000352
  1Cl  1s        -0.011155 -0.006390  0.009511  0.001027 -0.000201  0.000554
  1Cl  2s         0.070666  0.040334 -0.060120 -0.007184  0.001307 -0.003724
  1Cl  3s        -0.096065 -0.049408  0.074899  0.020299  0.000286  0.009251
  1Cl  4s        -0.096932 -0.069695  0.106045  0.000109 -0.024840 -0.002321
  1Cl  1pz        0.030220 -0.028670 -0.072619  0.114133  0.149482  0.155461
  1Cl  1px        0.015617 -0.019180  0.066822 -0.154450  0.140462  0.110799
  1Cl  1py        0.088176  0.097652 -0.112336 -0.039748  0.003451  0.015548
  1Cl  2pz        0.051898 -0.048016 -0.126276  0.197234  0.259496  0.269771
  1Cl  2px        0.026458 -0.034664  0.117462 -0.267342  0.243349  0.191995
  1Cl  2py        0.152153  0.169670 -0.195670 -0.065581  0.006215  0.027944
  1Cl  3pz        0.051561 -0.061128 -0.133806  0.255673  0.324307  0.349902
  1Cl  3px        0.029939 -0.026569  0.116863 -0.344379  0.319149  0.248095
  1Cl  3py        0.145539  0.177495 -0.204646 -0.090869 -0.002790  0.030457
  1Cl  1dz2      -0.003583 -0.015589  0.004109 -0.001190  0.006934 -0.004093
  1Cl  1dxz       0.000777  0.001508  0.010064 -0.004817 -0.000844 -0.000579
  1Cl  1dyz       0.013028 -0.006995 -0.017525  0.008279  0.004090  0.002346
  1Cl  1dx2y2    -0.023050 -0.016564  0.008735  0.003182 -0.004052  0.001042
  1Cl  1dxy       0.002647 -0.008735  0.018914 -0.011682  0.006560  0.000881
  2Cl  1s        -0.011129 -0.006390 -0.009518  0.001018  0.000200  0.000557
  2Cl  2s         0.070500  0.040337  0.060163 -0.007122 -0.001295 -0.003751
  2Cl  3s        -0.095776 -0.049475 -0.074995  0.020147 -0.000465  0.009394
  2Cl  4s        -0.096799 -0.069557 -0.105979 -0.000054  0.025267 -0.002427
  2Cl  1pz        0.051003 -0.003500  0.098432  0.101353 -0.145218  0.154027
  2Cl  1px        0.017481 -0.017047 -0.064639 -0.155381 -0.140401  0.110734
  2Cl  1py       -0.077483 -0.102078 -0.092227  0.063694 -0.036563  0.025616
  2Cl  2pz        0.087771 -0.004342  0.171260  0.175966 -0.252137  0.267514
  2Cl  2px        0.029666 -0.030945 -0.113682 -0.268952 -0.243235  0.191895
  2Cl  2py       -0.133786 -0.176922 -0.160704  0.107076 -0.063215  0.043492
  2Cl  3pz        0.085798 -0.015080  0.180751  0.226335 -0.312503  0.345620
  2Cl  3px        0.033044 -0.022741 -0.112814 -0.346199 -0.318927  0.247859
  2Cl  3py       -0.127356 -0.187678 -0.167610  0.144498 -0.089759  0.062062
  2Cl  1dz2       0.003396 -0.016171  0.004120  0.002303 -0.008212 -0.002798
  2Cl  1dxz       0.001883 -0.000655 -0.014011 -0.007422 -0.000935 -0.000260
  2Cl  1dyz      -0.018391 -0.004376 -0.019538 -0.007178  0.001607 -0.003503
  2Cl  1dx2y2    -0.018889 -0.017254 -0.004742  0.004665  0.003000  0.001857
  2Cl  1dxy      -0.003240  0.008090  0.015594  0.010333  0.006732 -0.000928
  3C   1s        -0.001542 -0.001151 -0.000013  0.026365  0.000009 -0.037045
  3C   2s         0.001119  0.008693  0.000041 -0.066928  0.000042  0.094805
  3C   3s         0.028576 -0.032010 -0.000181 -0.088611 -0.000017  0.170494
  3C   1pz       -0.199475  0.341112  0.034648  0.016435  0.007327  0.007257
  3C   1px       -0.333559 -0.060781  0.002823 -0.121401  0.000516  0.155446
  3C   1py       -0.028909  0.042384 -0.275521  0.000778 -0.058321  0.002583
  3C   2pz       -0.057707  0.141753  0.015974 -0.051742 -0.006057 -0.012989
  3C   2px       -0.126287 -0.047104  0.001315 -0.043926 -0.000565  0.084581
  3C   2py       -0.008536  0.017350 -0.126160 -0.007150  0.048310 -0.000582
  3C   1dz2       0.008779 -0.014074  0.001624 -0.004266  0.001073 -0.002807
  3C   1dxz      -0.001305 -0.013832 -0.002030 -0.006059 -0.000846 -0.000868
  3C   1dyz       0.001127 -0.003701 -0.007389 -0.001578 -0.004901 -0.000150
  3C   1dx2y2    -0.006311 -0.003456  0.000584 -0.004438  0.000470  0.003723
  3C   1dxy      -0.000285 -0.001830  0.016735 -0.000862  0.007081 -0.000040
  4H   1s         0.093695 -0.210304 -0.000011 -0.087280 -0.000112 -0.191717
  4H   2s         0.026595 -0.069968 -0.000069 -0.040679  0.000062 -0.076332
  4H   1pz       -0.006299  0.008603 -0.000916  0.002378  0.000387  0.006704
  4H   1px        0.006827  0.001781 -0.000057  0.005489  0.000039  0.001709
  4H   1py       -0.000718  0.001110  0.007291  0.000347 -0.003010  0.000857
  5H   1s         0.189564 -0.256258  0.000070 -0.037841  0.000007 -0.017166
  5H   2s         0.046616 -0.073170  0.000146 -0.039259  0.000046 -0.090465
  5H   1pz        0.010858 -0.009992  0.000931 -0.001573  0.000010 -0.000467
  5H   1px       -0.004123 -0.002341  0.000081 -0.003057  0.000001 -0.000331
  5H   1py        0.001336 -0.001306 -0.007277 -0.000231 -0.000078 -0.000071
  6H   1s         0.041458  0.132951  0.184325  0.041031  0.058287 -0.017802
  6H   2s         0.003287  0.034074  0.055194  0.062069  0.049361 -0.024666
  6H   1pz       -0.007396  0.004340 -0.006368 -0.000168 -0.001648  0.001413
  6H   1px       -0.005750  0.001833  0.003640 -0.000168  0.000636  0.003167
  6H   1py        0.002243  0.008865  0.003199  0.001097  0.000935 -0.000094
  7H   1s         0.041218  0.132970 -0.184294  0.041066 -0.058231 -0.017792
  7H   2s         0.003113  0.034110 -0.055177  0.062245 -0.049359 -0.024885
  7H   1pz       -0.006597  0.006417  0.005367  0.000106  0.001360  0.001350
  7H   1px       -0.005725  0.002018 -0.003723 -0.000146 -0.000661  0.003157
  7H   1py       -0.004129 -0.007462  0.004598 -0.001112  0.001313  0.000513
                     24        25        26        27        28        29   
                  -0.30735  -0.05631  -0.04409   0.00054   0.03043   0.04570
                   2.00000   0.00000   0.00000   0.00000   0.00000   0.00000
                  --------  --------  --------  --------  --------  --------
  0C   1s         0.000016 -0.182186  0.000054  0.025866 -0.094991 -0.000317
  0C   2s        -0.000084  0.468843 -0.000155 -0.073508  0.225890  0.001175
  0C   3s         0.000252  1.254233 -0.000219 -0.557533  1.368198  0.001138
  0C   1pz        0.005419 -0.268900 -0.073242 -0.264242  0.145409  0.015036
  0C   1px        0.000442  0.290973 -0.006293  0.059788  0.017172  0.001579
  0C   1py       -0.043806 -0.030541  0.583060 -0.032615  0.018729 -0.118867
  0C   2pz       -0.004247 -0.371928 -0.111268 -0.571672  0.356595  0.066254
  0C   2px       -0.000545  0.340598 -0.009235  0.030855 -0.191166  0.006193
  0C   2py        0.035231 -0.043367  0.887229 -0.070248  0.046158 -0.520836
  0C   1dz2      -0.002455  0.003008 -0.004512  0.016076 -0.011819  0.003811
  0C   1dxz       0.001344  0.012992  0.002927  0.011343 -0.018050  0.002181
  0C   1dyz       0.011069  0.002230  0.020347  0.004127 -0.002819 -0.017318
  0C   1dx2y2    -0.001158  0.010935 -0.002065  0.003310 -0.000553  0.002605
  0C   1dxy      -0.011596  0.001861 -0.024941  0.001531 -0.002202 -0.016427
  1Cl  1s         0.002090 -0.014245  0.017031 -0.010450 -0.002461 -0.003757
  1Cl  2s        -0.013924  0.092463 -0.112453  0.071019  0.016105  0.024871
  1Cl  3s         0.028960 -0.081389  0.156993 -0.156004 -0.016037 -0.024637
  1Cl  4s         0.008131 -0.498948  0.426297 -0.037070 -0.081777 -0.215347
  1Cl  1pz       -0.105959 -0.029138  0.059660  0.001349  0.009484 -0.027342
  1Cl  1px        0.106862  0.038348 -0.069008  0.030522  0.018675  0.003408
  1Cl  1py        0.149079 -0.130433  0.093871 -0.027330 -0.011972 -0.007173
  1Cl  2pz       -0.184513 -0.050922  0.101285 -0.001532  0.025608 -0.049707
  1Cl  2px        0.185927  0.063731 -0.116571  0.057745  0.035281  0.002019
  1Cl  2py        0.261180 -0.216569  0.160396 -0.047779 -0.017970 -0.005389
  1Cl  3pz       -0.231458 -0.117191  0.266603  0.031850 -0.026077 -0.124753
  1Cl  3px        0.233177  0.187648 -0.319461  0.097219  0.066529  0.079367
  1Cl  3py        0.333642 -0.610285  0.431145 -0.126918 -0.070672 -0.130051
  1Cl  1dz2      -0.002738 -0.041442  0.011365 -0.012882 -0.007280  0.013390
  1Cl  1dxz       0.002906 -0.000278  0.038649  0.013775 -0.009439 -0.024145
  1Cl  1dyz       0.005016  0.033209 -0.045492 -0.017882  0.016133  0.018616
  1Cl  1dx2y2    -0.003579 -0.063955  0.010612 -0.003029 -0.010422 -0.014560
  1Cl  1dxy      -0.005748 -0.047952  0.055708 -0.013358 -0.011473  0.001246
  2Cl  1s        -0.002097 -0.014256 -0.017017 -0.010451 -0.002484  0.003687
  2Cl  2s         0.013975  0.092534  0.112363  0.071020  0.016258 -0.024395
  2Cl  3s        -0.029141 -0.081533 -0.156851 -0.155748 -0.016072  0.023559
  2Cl  4s        -0.007893 -0.498881 -0.426014 -0.038537 -0.084347  0.215425
  2Cl  1pz        0.066101 -0.060717 -0.081251 -0.005656  0.005917  0.028351
  2Cl  1px       -0.110118  0.035741  0.067233  0.029937  0.018368 -0.003153
  2Cl  1py        0.168463  0.119966  0.077434  0.027402  0.014257  0.000031
  2Cl  2pz        0.114730 -0.103303 -0.138245 -0.013667  0.019827  0.049727
  2Cl  2px       -0.191691  0.059380  0.113559  0.056709  0.034743 -0.001685
  2Cl  2py        0.294907  0.198563  0.132415  0.046971  0.024253  0.007570
  2Cl  3pz        0.142359 -0.265417 -0.365825 -0.001603 -0.044611  0.153041
  2Cl  3px       -0.240249  0.175401  0.311030  0.094841  0.065792 -0.076617
  2Cl  3py        0.375610  0.566080  0.357706  0.133348  0.064327 -0.095892
  2Cl  1dz2       0.000243 -0.020324  0.009399 -0.018944  0.000933 -0.020835
  2Cl  1dxz      -0.001515 -0.010851 -0.050194  0.009724 -0.011705  0.022693
  2Cl  1dyz       0.006373 -0.062149 -0.048327  0.009761 -0.020011  0.014540
  2Cl  1dx2y2     0.002338 -0.053705 -0.000646 -0.007234 -0.006337  0.009950
  2Cl  1dxy      -0.006112  0.044128  0.044261  0.016055  0.008314  0.007778
  3C   1s        -0.000017 -0.022636  0.000046  0.111816  0.105369  0.000638
  3C   2s         0.000062  0.081981 -0.000179 -0.269608 -0.219061 -0.001526
  3C   3s        -0.000277  0.127231 -0.000252 -1.466889 -1.824522 -0.007635
  3C   1pz        0.006270 -0.038425 -0.007389 -0.072553  0.244354 -0.053841
  3C   1px        0.000603 -0.077006 -0.000499  0.181454  0.036459 -0.003869
  3C   1py       -0.049820 -0.005598  0.058584 -0.007879  0.029416  0.442530
  3C   2pz        0.003162 -0.066516  0.000686 -0.062520  0.464460 -0.146370
  3C   2px        0.000287 -0.287956  0.000648  0.431406 -0.152788 -0.011426
  3C   2py       -0.025362 -0.010854 -0.007684 -0.005975  0.049822  1.182260
  3C   1dz2       0.000360 -0.012852 -0.000415 -0.001471  0.012895  0.005909
  3C   1dxz      -0.000343 -0.014969 -0.004248 -0.020659  0.015231 -0.001596
  3C   1dyz      -0.001655 -0.001922  0.001796 -0.001848  0.003686 -0.026008
  3C   1dx2y2     0.000151  0.008339 -0.000962 -0.010252  0.004356  0.002984
  3C   1dxy       0.002824 -0.001706  0.033559 -0.002867  0.001912  0.015190
  4H   1s        -0.000133 -0.019382  0.000010  0.107024 -0.171652 -0.000621
  4H   2s        -0.000218 -0.312719 -0.000787  1.033487 -1.212793 -0.002153
  4H   1pz       -0.000035 -0.005770 -0.002042  0.007066 -0.009853  0.001266
  4H   1px        0.000007  0.011799 -0.000163  0.003022 -0.008137  0.000081
  4H   1py        0.000377 -0.000577  0.016284  0.000932 -0.001325 -0.010352
  5H   1s         0.000016 -0.095443 -0.000030 -0.009159  0.182010  0.000980
  5H   2s         0.000051 -0.371134  0.000116  0.453921  1.529866  0.008966
  5H   1pz        0.000165  0.001739  0.000288 -0.008023 -0.015246 -0.002142
  5H   1px        0.000018  0.000775  0.000027  0.009578 -0.007302 -0.000185
  5H   1py       -0.001253  0.000205 -0.002296 -0.000909 -0.001971  0.015525
  6H   1s         0.032846  0.029864  0.111756  0.110138 -0.013366  0.191151
  6H   2s        -0.014740 -0.102340  0.253706  0.960138  0.288217  1.429773
  6H   1pz       -0.000544 -0.002653 -0.003551  0.007386  0.006227  0.013083
  6H   1px       -0.001589 -0.005172 -0.007668 -0.001751 -0.001127 -0.003665
  6H   1py        0.001238  0.002658 -0.000247 -0.009248 -0.002191 -0.004390
  7H   1s        -0.032855  0.029665 -0.111652  0.110820 -0.011178 -0.190786
  7H   2s         0.014851 -0.103511 -0.252607  0.965765  0.303100 -1.426133
  7H   1pz        0.000216 -0.001873  0.003494  0.004871  0.005550 -0.011446
  7H   1px        0.001565 -0.005145  0.007684 -0.001925 -0.001119  0.003761
  7H   1py        0.001362 -0.003326  0.000784  0.010761  0.003673 -0.007340
                     30        31        32        33        34        35   
                   0.05601   0.06878   0.29848   0.30527   0.30640   0.34857
                   0.00000   0.00000   0.00000   0.00000   0.00000   0.00000
                  --------  --------  --------  --------  --------  --------
  0C   1s         0.050666 -0.082471  0.037202  0.000720 -0.000594  0.000704
  0C   2s        -0.125895  0.161158 -0.233983 -0.005391 -0.086762 -0.004581
  0C   3s        -1.051990  1.963484  0.321120  0.001506 -0.890804  0.019543
  0C   1pz       -0.209987 -0.193384  0.127046  0.032400  0.021805  0.088431
  0C   1px        0.120162 -0.415579 -0.341510 -0.001660  0.326339  0.008769
  0C   1py       -0.024497 -0.028656  0.016493 -0.241446  0.006985 -0.699815
  0C   2pz       -0.683312 -0.678270  0.019445  0.033430  0.074396 -0.272825
  0C   2px        0.465912 -1.642865  0.434422  0.006830 -0.580420 -0.026179
  0C   2py       -0.080818 -0.103307  0.013105 -0.245405  0.007003  2.115485
  0C   1dz2       0.006630  0.020580  0.041544 -0.002214  0.059480 -0.014776
  0C   1dxz      -0.008203 -0.013841  0.050524  0.008389 -0.010575  0.001704
  0C   1dyz       0.003463  0.000944  0.012454  0.015630  0.003306  0.068355
  0C   1dx2y2     0.015938 -0.027065  0.023272 -0.000640 -0.076008 -0.008018
  0C   1dxy      -0.000693 -0.002348  0.007995 -0.060971 -0.002549 -0.018998
  1Cl  1s        -0.004151  0.004048 -0.019505  0.021527 -0.008340  0.000456
  1Cl  2s         0.028032 -0.028785  0.142641 -0.157833  0.059865 -0.004437
  1Cl  3s        -0.048305  0.103552 -0.516453  0.598858 -0.224402 -0.041634
  1Cl  4s        -0.110812 -0.172963  0.356052 -0.638834  0.435705  0.815857
  1Cl  1pz        0.014157  0.015472  0.027600 -0.001098  0.022634  0.031351
  1Cl  1px       -0.012529  0.018447  0.006147 -0.047214  0.045324  0.026101
  1Cl  1py       -0.026122  0.008043 -0.003997 -0.022919  0.002097 -0.016412
  1Cl  2pz        0.025749  0.025848  0.060236  0.005982  0.052168  0.070249
  1Cl  2px       -0.024833  0.022604  0.026242 -0.124708  0.093480  0.068519
  1Cl  2py       -0.044242  0.018625 -0.022539 -0.036415 -0.000135 -0.025523
  1Cl  3pz        0.051311  0.084590  0.023119 -0.057696  0.075842  0.254685
  1Cl  3px       -0.021909  0.194750 -0.041665  0.030549  0.103955 -0.258544
  1Cl  3py       -0.162586 -0.010292 -0.029356 -0.121765  0.172135  0.270595
  1Cl  1dz2      -0.003130  0.000122  0.015420  0.005309 -0.059662 -0.196734
  1Cl  1dxz       0.037230 -0.015818  0.088639 -0.015056 -0.024553  0.038887
  1Cl  1dyz      -0.014624 -0.045009 -0.083264  0.055476 -0.059249  0.023686
  1Cl  1dx2y2    -0.032166  0.015788  0.066775 -0.158435  0.096513 -0.090840
  1Cl  1dxy      -0.000052 -0.067359  0.062644 -0.035325 -0.136682 -0.143438
  2Cl  1s        -0.004170  0.004035 -0.018707 -0.022424 -0.008036 -0.000069
  2Cl  2s         0.028165 -0.028691  0.136794  0.164376  0.057639  0.001608
  2Cl  3s        -0.048560  0.103216 -0.494210 -0.622681 -0.215803  0.052782
  2Cl  4s        -0.110994 -0.172413  0.331349  0.659551  0.424977 -0.833049
  2Cl  1pz        0.007163  0.016921  0.025432  0.007776  0.022098 -0.026052
  2Cl  1px       -0.013066  0.018618  0.004207  0.048445  0.044600 -0.025622
  2Cl  1py        0.028621 -0.003517  0.011509 -0.020457  0.004717 -0.024137
  2Cl  2pz        0.013858  0.029559  0.052464  0.005294  0.049829 -0.061198
  2Cl  2px       -0.025739  0.023033  0.020949  0.127552  0.091457 -0.067636
  2Cl  2py        0.048834 -0.011028  0.038274 -0.032523  0.015260 -0.043583
  2Cl  3pz        0.009012  0.079010  0.011595  0.088039  0.114314 -0.315043
  2Cl  3px       -0.025321  0.194210 -0.041082 -0.028612  0.108364  0.255298
  2Cl  3py        0.170056  0.034913  0.037613 -0.105125 -0.143818  0.208608
  2Cl  1dz2      -0.007271 -0.019334 -0.023242 -0.038480 -0.083062  0.163104
  2Cl  1dxz       0.035881 -0.033049  0.098441  0.024050 -0.059589 -0.003325
  2Cl  1dyz       0.004372  0.042439  0.094777  0.089244  0.047865  0.125772
  2Cl  1dx2y2    -0.034898  0.001843  0.040586  0.144193  0.075332  0.076763
  2Cl  1dxy       0.007941  0.061598 -0.035800 -0.024225  0.129891 -0.144850
  3C   1s        -0.050555  0.073959 -0.005105  0.000371  0.079691 -0.000405
  3C   2s         0.106279 -0.105691  0.037384 -0.002422 -0.559118  0.002312
  3C   3s         0.993010 -2.178261  0.289470  0.008605  0.776987 -0.012369
  3C   1pz        0.373742 -0.033522  0.202245  0.034492 -0.031108 -0.039101
  3C   1px       -0.017872 -0.396515 -0.018011 -0.001573 -0.549939 -0.000704
  3C   1py        0.046477 -0.008204  0.030024 -0.245263 -0.008142  0.305281
  3C   2pz        1.050507 -0.020384 -0.782811 -0.141366 -0.055323  0.157641
  3C   2px        0.163345 -1.707510 -0.032106 -0.003927  1.097411  0.005567
  3C   2py        0.132045 -0.020090 -0.119091  1.007259 -0.002251 -1.227092
  3C   1dz2       0.026288 -0.011534 -0.087437  0.014319  0.011357 -0.006021
  3C   1dxz      -0.005149  0.009559 -0.026064 -0.007233 -0.029283 -0.002216
  3C   1dyz       0.006306  0.002594 -0.017774 -0.072098 -0.005245  0.027680
  3C   1dx2y2     0.003735  0.039703  0.003425  0.007607 -0.062280 -0.003967
  3C   1dxy      -0.000554  0.002046 -0.004350  0.058472 -0.005351  0.012917
  4H   1s         0.069456  0.115380  0.281073  0.006209  0.235992  0.003953
  4H   2s         1.115227  0.540640 -0.365736 -0.009175 -0.182771 -0.003420
  4H   1pz        0.007788  0.004448  0.005460 -0.001487 -0.003138 -0.002105
  4H   1px        0.000278 -0.013642  0.038759  0.000471 -0.016999 -0.000164
  4H   1py        0.001053  0.000415  0.000838  0.012886 -0.000673  0.018819
  5H   1s         0.166979 -0.006878 -0.712735 -0.012561  0.019676  0.000195
  5H   2s         1.147132  0.199410  0.142910  0.002935 -0.103511  0.002533
  5H   1pz       -0.008878  0.000304  0.000024 -0.006772 -0.004095  0.002539
  5H   1px        0.006052 -0.014127  0.006632 -0.000419  0.017546  0.000607
  5H   1py       -0.001046 -0.000082 -0.000867  0.053470 -0.000763 -0.019419
  6H   1s        -0.089561 -0.092112  0.199390  0.588409  0.251345 -0.102328
  6H   2s        -0.944672 -0.128421 -0.106105 -0.115049 -0.176848 -0.268371
  6H   1pz        0.007275 -0.001855 -0.040955  0.014421 -0.003380 -0.011064
  6H   1px        0.004080 -0.015833 -0.011517 -0.009827  0.014430 -0.061810
  6H   1py        0.015313  0.006263 -0.014989  0.022024 -0.008830 -0.018967
  7H   1s        -0.088655 -0.092634  0.221083 -0.577847  0.259291  0.102471
  7H   2s        -0.940583 -0.129392 -0.109088  0.109256 -0.179357  0.267741
  7H   1pz        0.010851 -0.000200 -0.042615 -0.021166 -0.005244  0.015506
  7H   1px        0.004424 -0.015687 -0.012024  0.009290  0.014261  0.062155
  7H   1py       -0.012957 -0.006887  0.003518  0.018221  0.007790 -0.014350
                     36        37        38        39        40        41   
                   0.35825   0.39266   0.45780   0.48889   0.50935   0.52153
                   0.00000   0.00000   0.00000   0.00000   0.00000   0.00000
                  --------  --------  --------  --------  --------  --------
  0C   1s        -0.074944  0.029050  0.088485  0.000071  0.099017 -0.000300
  0C   2s         0.442883 -0.394979 -0.537104 -0.000650 -0.663755  0.002242
  0C   3s        -2.083173  0.985513  2.833780 -0.000334  1.721068 -0.001695
  0C   1pz       -0.189803  0.397909  0.017841  0.004654 -0.361645  0.024043
  0C   1px       -0.187042 -0.136472  0.714429 -0.000621 -0.006265  0.001276
  0C   1py       -0.029825  0.048965  0.010461 -0.045096 -0.046185 -0.189111
  0C   2pz        1.245965 -1.280923  0.061352 -0.049097  0.703038 -0.072979
  0C   2px        0.412623  0.179234 -2.429626 -0.000437 -0.134783 -0.004749
  0C   2py        0.174292 -0.159935 -0.019462  0.403350  0.088869  0.569959
  0C   1dz2      -0.062691  0.043021 -0.023285  0.004435  0.063766 -0.002314
  0C   1dxz      -0.014156 -0.033585  0.014412  0.004961 -0.006322  0.004007
  0C   1dyz      -0.017015  0.014948 -0.001869 -0.019451  0.016285  0.010969
  0C   1dx2y2    -0.026051  0.045558  0.025669  0.003229  0.017475 -0.000478
  0C   1dxy      -0.002407 -0.003254  0.002278 -0.037116 -0.000452 -0.033665
  1Cl  1s        -0.034130 -0.023498 -0.015664 -0.042334 -0.008722 -0.017726
  1Cl  2s         0.249322  0.172424  0.116749  0.313837  0.064436  0.132762
  1Cl  3s        -0.969420 -0.594580 -0.485242 -1.243021 -0.235769 -0.576017
  1Cl  4s         1.390989  0.117643  0.620750  1.402430  0.151363  0.857303
  1Cl  1pz       -0.027342  0.037727  0.015336  0.007861  0.000477 -0.001494
  1Cl  1px       -0.007453 -0.042128 -0.006327 -0.048248 -0.023647 -0.013930
  1Cl  1py        0.002448 -0.016454  0.014972  0.061416 -0.003827  0.053197
  1Cl  2pz       -0.055256  0.084243  0.042696  0.017756  0.002715 -0.008719
  1Cl  2px       -0.016932 -0.108433 -0.026353 -0.134635 -0.072548 -0.021771
  1Cl  2py       -0.006696 -0.042069  0.027385  0.170330 -0.013895  0.157023
  1Cl  3pz       -0.080954  0.067935  0.018175  0.054185 -0.062904  0.082612
  1Cl  3px       -0.154202  0.111478  0.144927 -0.001525  0.076505 -0.158463
  1Cl  3py        0.314849 -0.258135  0.180038  0.009281 -0.009166  0.021326
  1Cl  1dz2       0.030478 -0.021333  0.103803  0.069547 -0.086288  0.036359
  1Cl  1dxz      -0.086144  0.069258 -0.122939  0.091630 -0.047954  0.055786
  1Cl  1dyz       0.129194 -0.214852 -0.080280  0.024463 -0.074257  0.020731
  1Cl  1dx2y2     0.048532 -0.088373 -0.001742  0.009922  0.040979 -0.255120
  1Cl  1dxy       0.041986  0.119820 -0.074455  0.031188  0.040224  0.098948
  2Cl  1s        -0.034064 -0.023445 -0.015562  0.042408 -0.008625  0.017929
  2Cl  2s         0.248846  0.172033  0.115996 -0.314398  0.063699 -0.134261
  2Cl  3s        -0.966823 -0.593108 -0.482488  1.245456 -0.232401  0.581912
  2Cl  4s         1.379076  0.116510  0.619187 -1.405889  0.146134 -0.863602
  2Cl  1pz       -0.026270  0.032506  0.018420 -0.022950 -0.000586 -0.011705
  2Cl  1px       -0.007562 -0.042519 -0.005863  0.046860 -0.023708  0.013326
  2Cl  1py       -0.009587  0.024449 -0.010747  0.058742  0.003572  0.052212
  2Cl  2pz       -0.056162  0.071229  0.047690 -0.059642 -0.001093 -0.030337
  2Cl  2px       -0.017542 -0.109385 -0.025322  0.130743 -0.072956  0.019993
  2Cl  2py       -0.008181  0.059424 -0.016316  0.163934  0.013273  0.154748
  2Cl  3pz       -0.003532  0.001775  0.062735 -0.055763 -0.063709 -0.085778
  2Cl  3px       -0.144392  0.105692  0.147844  0.001484  0.077800  0.157296
  2Cl  3py       -0.325301  0.269249 -0.167067 -0.004080 -0.004708  0.003852
  2Cl  1dz2       0.080944 -0.104833  0.060788 -0.072365 -0.112210 -0.055182
  2Cl  1dxz      -0.071041  0.093470 -0.139351 -0.096346 -0.038372 -0.080287
  2Cl  1dyz      -0.089026  0.160548  0.109859 -0.012678  0.038590  0.062511
  2Cl  1dx2y2     0.079453 -0.131969 -0.029197 -0.011933  0.029936  0.239322
  2Cl  1dxy      -0.060490 -0.103879  0.041246  0.006524 -0.048789  0.091868
  3C   1s         0.029637 -0.007884 -0.167720  0.000355  0.111160 -0.002284
  3C   2s        -0.216417  0.070697  0.932284 -0.002312 -0.768406  0.016024
  3C   3s         1.543990 -0.537199 -4.024794  0.008144  1.700592 -0.042536
  3C   1pz        0.055476 -0.305476  0.084852 -0.033551  0.556617  0.092928
  3C   1px       -0.356750 -0.116068  0.339286 -0.003092  0.226987  0.002921
  3C   1py        0.004926 -0.039257  0.015470  0.264100  0.069232 -0.730058
  3C   2pz       -0.414049  1.253432 -0.508735  0.040006 -1.065769 -0.168155
  3C   2px        0.792716 -0.251274 -1.746854  0.005236 -0.629739 -0.003221
  3C   2py       -0.051401  0.154991 -0.084120 -0.310863 -0.135203  1.323822
  3C   1dz2      -0.010450  0.046818  0.005631  0.014686  0.095526 -0.018003
  3C   1dxz       0.046000 -0.003857 -0.003911 -0.008031  0.023622  0.007571
  3C   1dyz       0.002399  0.014336 -0.003588 -0.066626  0.022505  0.080822
  3C   1dx2y2     0.030905  0.031633 -0.035643  0.007069  0.005424 -0.008411
  3C   1dxy       0.006522  0.000287 -0.001167  0.068867  0.002702 -0.064867
  4H   1s        -0.679440  0.129601 -0.041172  0.000670  0.410563  0.001006
  4H   2s         0.202482  0.033509 -0.194639 -0.002523 -1.251338  0.000323
  4H   1pz       -0.019831 -0.041184 -0.001664  0.003151  0.078508  0.000245
  4H   1px       -0.003948 -0.056844  0.041498  0.000216  0.029118  0.000046
  4H   1py       -0.002434 -0.005816  0.000193 -0.023326  0.010155 -0.001968
  5H   1s        -0.005435  0.360768 -0.296735  0.000167  0.597026 -0.001567
  5H   2s        -0.429758  0.247782  0.370971 -0.000598 -1.914979  0.011389
  5H   1pz        0.002666  0.032628  0.037409 -0.006322 -0.111987  0.007009
  5H   1px       -0.062042  0.050723  0.020183 -0.000548 -0.033021  0.000398
  5H   1py       -0.000539  0.004608  0.005091  0.049801 -0.014691 -0.051316
  6H   1s        -0.161509 -0.229039 -0.227994  0.467962 -0.113268 -0.358396
  6H   2s         0.058772 -0.025316  0.426936 -0.765292 -0.092394  1.340301
  6H   1pz       -0.013081  0.025873 -0.019515  0.032430  0.039670 -0.070038
  6H   1px        0.008857 -0.024793  0.052010 -0.034335  0.016673  0.032627
  6H   1py        0.013930  0.026156  0.019134 -0.009653  0.014642  0.053783
  7H   1s        -0.159206 -0.229441 -0.230200 -0.467063 -0.109799  0.353093
  7H   2s         0.061073 -0.024688  0.431844  0.761875 -0.103917 -1.308226
  7H   1pz       -0.009058  0.031560 -0.014376 -0.029051  0.042530  0.053996
  7H   1px        0.009887 -0.024279  0.052593  0.034490  0.016499 -0.033463
  7H   1py       -0.016719 -0.019565 -0.022509 -0.016512 -0.003387  0.067093
                     42        43        44        45        46        47   
                   0.52589   0.52942   0.60084   0.62834   0.64735   0.65832
                   0.00000   0.00000   0.00000   0.00000   0.00000   0.00000
                  --------  --------  --------  --------  --------  --------
  0C   1s         0.055709 -0.086897 -0.016868  0.000055  0.134567 -0.000322
  0C   2s        -0.431185  0.608536 -0.052850  0.000127 -1.210874  0.002514
  0C   3s         1.240401 -1.752563  1.834361  0.000373  3.958235 -0.014355
  0C   1pz       -0.256165  0.627823 -0.000126 -0.009773  0.048463 -0.026798
  0C   1px        0.028752  0.188925 -0.236404 -0.000734 -0.118431 -0.001477
  0C   1py       -0.033134  0.079793 -0.002424  0.074729  0.004542  0.210527
  0C   2pz        0.484706 -1.136851 -0.086514  0.043892 -0.369862  0.059706
  0C   2px       -0.308929 -0.414294 -0.663751  0.003624  0.239251  0.006230
  0C   2py        0.061283 -0.143858 -0.018086 -0.344430 -0.044249 -0.452374
  0C   1dz2       0.003218 -0.077580 -0.012779 -0.028270 -0.008042 -0.009327
  0C   1dxz       0.025727 -0.015434 -0.012047 -0.012969  0.033520  0.008487
  0C   1dyz      -0.001033 -0.018477 -0.004361  0.127429 -0.009261  0.042993
  0C   1dx2y2    -0.016114 -0.010583 -0.011231 -0.018395 -0.059844 -0.003502
  0C   1dxy       0.002672 -0.002447 -0.001734  0.091188  0.003083 -0.072513
  1Cl  1s        -0.009150 -0.003514 -0.003032 -0.004502 -0.002092 -0.002563
  1Cl  2s         0.068362  0.026062  0.022892  0.033153  0.011860  0.017224
  1Cl  3s        -0.278008 -0.114911 -0.076484 -0.111931  0.134059 -0.009464
  1Cl  4s         0.286915  0.208617 -0.071439 -0.016018 -1.014955 -0.211347
  1Cl  1pz        0.021582 -0.024427  0.006507 -0.030915 -0.015067  0.019406
  1Cl  1px       -0.028027 -0.018372 -0.040562 -0.048246 -0.003706 -0.003308
  1Cl  1py       -0.004223  0.006105  0.012192  0.040496  0.077304  0.088298
  1Cl  2pz        0.070047 -0.080365  0.022631 -0.099938 -0.040472  0.066219
  1Cl  2px       -0.077338 -0.060301 -0.122033 -0.155268 -0.021797 -0.016934
  1Cl  2py       -0.016159  0.017927  0.038525  0.129582  0.271441  0.291930
  1Cl  3pz       -0.094950  0.164931 -0.045798  0.049274 -0.096820 -0.117591
  1Cl  3px        0.023868  0.070967  0.135398  0.164065  0.229200  0.100193
  1Cl  3py        0.034279  0.031643 -0.098170 -0.162032 -0.749392 -0.356623
  1Cl  1dz2       0.098293  0.024039  0.313434 -0.130210  0.261236 -0.331405
  1Cl  1dxz      -0.088230  0.045797 -0.173503 -0.039740  0.342100 -0.489180
  1Cl  1dyz       0.048075 -0.040381 -0.122318 -0.498397  0.208289  0.002877
  1Cl  1dx2y2    -0.041717  0.047914 -0.233917  0.058605  0.034298 -0.172700
  1Cl  1dxy       0.026342 -0.118665 -0.078808 -0.373743 -0.311226  0.187888
  2Cl  1s        -0.008971 -0.003297 -0.003034  0.004435 -0.002055  0.002641
  2Cl  2s         0.067015  0.024444  0.022912 -0.032656  0.011587 -0.017782
  2Cl  3s        -0.271962 -0.108078 -0.076635  0.110001  0.135131  0.010671
  2Cl  4s         0.277369  0.198398 -0.071067  0.018175 -1.015987  0.215475
  2Cl  1pz        0.019750 -0.022335  0.009213  0.020218  0.005106 -0.040324
  2Cl  1px       -0.028008 -0.017969 -0.040289  0.047073 -0.001914  0.003350
  2Cl  1py        0.009447 -0.011672 -0.011104  0.047478 -0.078500  0.081884
  2Cl  2pz        0.063537 -0.073901  0.031097  0.065675  0.029862 -0.135374
  2Cl  2px       -0.077645 -0.059258 -0.121177  0.151543 -0.015595  0.016903
  2Cl  2py        0.033138 -0.036430 -0.034429  0.152191 -0.272803  0.270335
  2Cl  3pz       -0.084416  0.166552 -0.068448 -0.008250 -0.281750  0.202729
  2Cl  3px        0.026898  0.072736  0.133243 -0.160098  0.213507 -0.099131
  2Cl  3py       -0.056040  0.011323  0.086569 -0.171609  0.706083 -0.324302
  2Cl  1dz2       0.110792  0.002645  0.247786  0.328206  0.324868  0.288449
  2Cl  1dxz      -0.078784  0.012272 -0.188219  0.141416  0.257131  0.423748
[...]
 4 H  s               0.0       0.6       0.0       0.0       1.1       0.0
 4 H  pz              0.2       1.3       0.1       0.4       9.2       0.4
 4 H  px              0.0       3.7       0.0       1.3      18.9       0.0
 4 H  py             11.1       0.0       4.2       0.0       0.2      22.6
 5 H  s               0.0       2.3       0.0       0.8       0.9       0.0
 5 H  pz              0.0      13.5       0.3       5.0       5.1       0.0
 5 H  px              0.0       0.3       0.0      17.5      15.7       0.0
 5 H  py              0.2       0.2      18.7       0.1       0.1       0.6
 6 H  s               0.2       0.1       2.0       0.7       0.1       0.6
 6 H  pz              1.5      10.2       0.3       8.9       0.6       3.7
 6 H  px             17.7       4.5       1.9       4.1       0.2       4.4
 6 H  py              0.4       0.4      17.0       0.0       1.2       5.1
 7 H  s               0.2       0.1       2.0       0.7       0.1       0.6
 7 H  pz              1.0      10.5       0.3       8.2       0.2       1.7
 7 H  px             17.6       4.6       1.7       4.2       0.2       4.7
 7 H  py              1.0       0.0      17.3       0.6       1.6       6.9

                     72        73        74        75        76        77   
                   2.23094   2.36623   2.46867   2.48572   2.48734   2.69855
                   0.00000   0.00000   0.00000   0.00000   0.00000   0.00000
                  --------  --------  --------  --------  --------  --------
 0 C  s               3.7       0.2       0.0       0.0       0.1       1.7
 0 C  pz              3.5       0.6       0.0       0.0       0.1       0.8
 0 C  px              1.9       0.8       0.0       0.0       0.6       1.2
 0 C  py              0.1       0.0       0.2       1.6       0.0       0.0
 0 C  dz2            21.2       0.5       2.5       0.5       1.7       0.4
 0 C  dxz             0.1       0.4       0.1       0.4      25.8       0.6
 0 C  dyz             1.4       0.7      51.7       9.3       0.1       0.2
 0 C  dx2y2           1.9      29.5       0.7       0.2       0.1      16.5
 0 C  dxy             0.0       0.0       8.4      21.5       0.4       0.0
 1 Cl s               0.8       1.0       1.0       0.8       0.1       0.1
 1 Cl pz              0.1       0.0       0.0       0.1       0.0       0.0
 1 Cl px              0.0       0.4       0.3       0.1       0.2       0.0
 1 Cl py              0.3       0.3       0.8       0.2       0.0       0.1
 1 Cl dz2             0.1       0.1       1.2       0.0       0.2       0.0
 1 Cl dxz             0.1       0.1       0.0       0.1       0.0       0.0
 1 Cl dyz             0.8       0.3       0.1       0.7       0.1       0.0
 1 Cl dx2y2           0.3       0.0       0.6       0.1       0.0       0.0
 1 Cl dxy             0.2       1.2       1.8       0.0       0.1       0.2
 2 Cl s               0.8       1.0       1.0       0.8       0.1       0.1
 2 Cl pz              0.1       0.1       0.1       0.2       0.0       0.0
 2 Cl px              0.0       0.4       0.3       0.1       0.2       0.0
 2 Cl py              0.3       0.2       0.8       0.2       0.0       0.0
 2 Cl dz2             0.0       0.0       0.7       0.2       0.2       0.0
 2 Cl dxz             0.1       0.4       0.2       0.1       0.0       0.1
 2 Cl dyz             1.1       0.4       0.9       0.6       0.0       0.1
 2 Cl dx2y2           0.1       0.0       0.5       0.0       0.0       0.0
 2 Cl dxy             0.1       1.0       1.5       0.0       0.1       0.1
 3 C  s               0.0       0.3       0.0       0.0       0.2      15.3
 3 C  pz              1.0       2.5       0.0       0.1       5.5       0.1
 3 C  px              0.1       5.5       0.0       0.0       2.1       0.2
 3 C  py              0.0       0.0       1.3       5.6       0.1       0.0
 3 C  dz2             5.3       4.7       0.2       0.6       4.1       8.2
 3 C  dxz             1.8       0.5       0.0       0.0       0.0      11.1
 3 C  dyz             0.4       0.1       3.4      12.0       0.7       0.2
 3 C  dx2y2           0.6       4.3       0.1       0.2       7.9       2.4
 3 C  dxy             0.0       0.0       0.1       1.0       0.0       0.2
 4 H  s               0.5       0.0       0.0       0.0       0.0       0.4
 4 H  pz             26.1       0.6       0.2       0.2       0.2       3.9
 4 H  px              8.3       0.0       0.0       0.0      11.4       0.4
 4 H  py              0.4       0.0      12.0      12.2       0.0       0.1
 5 H  s               0.2       0.3       0.0       0.0       0.5       0.6
 5 H  pz              1.9       6.3       0.1       0.2       3.6       9.0
 5 H  px              1.2       7.3       0.0       0.0       3.9       2.7
 5 H  py              0.0       0.1       4.6      12.8       0.1       0.1
 6 H  s               0.1       0.0       0.0       0.5       0.3       0.6
 6 H  pz              2.0       2.5       0.5       4.8       1.0       7.7
 6 H  px              3.1      11.3       0.0       3.2       1.8       0.4
 6 H  py              1.3       0.0       0.8       0.1      11.8       2.7
 7 H  s               0.1       0.0       0.0       0.5       0.3       0.6
 7 H  pz              2.7       2.4       0.8       4.2       3.2       5.3
 7 H  px              3.2      11.3       0.0       3.2       1.6       0.5
 7 H  py              0.5       0.2       0.5       0.7       9.7       5.1

                     78        79        80        81        82        83   
                   2.80298   2.83641   3.06189   3.16993   3.25044   3.28247
                   0.00000   0.00000   0.00000   0.00000   0.00000   0.00000
                  --------  --------  --------  --------  --------  --------
 0 C  s               0.5       0.0       2.4       1.5       0.0       0.9
 0 C  pz              2.0       0.0       0.7       4.6       0.0       2.9
 0 C  px              0.1       0.0       1.3       1.5       0.0       0.2
 0 C  py              0.0       0.6       0.0       0.1       0.2       0.0
 0 C  dz2             2.7       0.0       0.9      20.1       0.1       9.3
 0 C  dxz            11.7       0.3       6.4       5.1       0.0       0.1
 0 C  dyz             0.0       0.7       0.3       0.7       1.1       0.5
 0 C  dx2y2           2.1       0.0       6.9       2.0       0.0       0.0
 0 C  dxy             0.2      19.8       0.1       0.1       0.3       0.0
 1 Cl s               0.0       0.4       0.1       0.0       0.1       0.1
 1 Cl py              0.0       0.3       0.1       0.0       0.0       0.0
 1 Cl dyz             0.0       0.3       0.0       0.0       0.0       0.0
 1 Cl dx2y2           0.1       0.4       0.0       0.0       0.0       0.0
 2 Cl s               0.0       0.4       0.1       0.0       0.1       0.1
 2 Cl pz              0.0       0.1       0.0       0.0       0.0       0.0
 2 Cl py              0.0       0.2       0.1       0.0       0.0       0.0
 2 Cl dyz             0.0       0.5       0.1       0.0       0.0       0.0
 2 Cl dx2y2           0.1       0.3       0.0       0.0       0.0       0.0
 3 C  s               4.7       0.0       6.7       0.4       0.0       0.0
 3 C  pz              0.5       0.0       0.2       1.7       0.2       8.7
 3 C  px              0.0       0.0       4.4       1.9       0.0       0.0
 3 C  py              0.0       0.1       0.0       0.0      11.5       0.1
 3 C  dz2             4.4       1.2       6.1       0.7       0.9      26.5
 3 C  dxz            22.4       0.5       0.0      15.4       0.3       3.1
 3 C  dyz             0.7      25.3       0.0       0.3      18.3       1.7
 3 C  dx2y2          11.6       0.6      26.7       5.3       0.2       1.1
 3 C  dxy             0.3      25.0       0.0       0.3      22.1       0.1
 4 H  s               1.1       0.0       1.6       8.1       0.0       3.9
 4 H  pz              3.8       0.0       4.1      15.4       0.0       5.6
 4 H  px              4.9       0.0       0.0       0.0       0.0       1.1
 4 H  py              0.1       0.3       0.1       0.2       0.0       0.1
 5 H  s               0.7       0.0       2.7       0.8       0.0       9.2
 5 H  pz              4.2       0.1       7.7       1.7       0.0      14.4
 5 H  px              5.3       0.0       0.2       1.0       0.0       1.2
 5 H  py              0.1       7.7       0.1       0.0       0.0       0.2
 6 H  s               0.2       0.0       2.0       1.7       8.1       1.6
 6 H  pz              0.7       3.2       1.7       0.5       3.6       1.1
 6 H  px              0.6       3.8       3.9       0.3       2.2       0.5
 6 H  py              6.3       0.2       2.1       3.0       8.3       1.2
 7 H  s               0.2       0.0       2.0       1.7       8.1       1.6
 7 H  pz              2.0       3.4       0.8       0.1       1.3       0.6
 7 H  px              0.5       3.9       4.0       0.3       2.4       0.6
 7 H  py              5.1       0.0       2.8       3.4      10.5       1.7



                      *****************************
                      * MAYER POPULATION ANALYSIS *
                      *****************************

  NA   - Mulliken gross atomic population
  ZA   - Total nuclear charge
  QA   - Mulliken gross atomic charge
  VA   - Mayer's total valence
  BVA  - Mayer's bonded valence
  FA   - Mayer's free valence

  ATOM       NA         ZA         QA         VA         BVA        FA
  0 C      5.9699     6.0000     0.0301     3.8757     3.8757    -0.0000
  1 Cl    17.1642    17.0000    -0.1642     0.9996     0.9996    -0.0000
  2 Cl    17.1642    17.0000    -0.1642     0.9996     0.9996    -0.0000
  3 C      6.0157     6.0000    -0.0157     3.8400     3.8400     0.0000
  4 H      0.8783     1.0000     0.1217     0.9576     0.9576    -0.0000
  5 H      0.9321     1.0000     0.0679     0.9954     0.9954     0.0000
  6 H      0.9379     1.0000     0.0621     0.9859     0.9859    -0.0000
  7 H      0.9379     1.0000     0.0621     0.9859     0.9859    -0.0000

  Mayer bond orders larger than 0.100000
B(  0-C ,  1-Cl) :   0.9738 B(  0-C ,  2-Cl) :   0.9738 B(  0-C ,  3-C ) :   0.9711 
B(  0-C ,  4-H ) :   0.9542 B(  3-C ,  5-H ) :   0.9765 B(  3-C ,  6-H ) :   0.9750 
B(  3-C ,  7-H ) :   0.9750 

-------
TIMINGS
-------

Total SCF time: 0 days 0 hours 0 min 3 sec 

Total time                  ....       3.826 sec
Sum of individual times     ....       3.592 sec  ( 93.9%)

SCF preparation             ....       0.217 sec  (  5.7%)
Fock matrix formation       ....       0.833 sec  ( 21.8%)
  Startup                   ....       0.289 sec  ( 34.7% of F)
  Coulomb+Exchange Fock     ....       0.331 sec  ( 39.7% of F)
Diagonalization             ....       0.000 sec  (  0.0%)
Density matrix formation    ....       0.389 sec  ( 10.2%)
Total Energy calculation    ....       0.333 sec  (  8.7%)
Population analysis         ....       0.506 sec  ( 13.2%)
Orbital Transformation      ....       0.149 sec  (  3.9%)
Orbital Orthonormalization  ....       0.000 sec  (  0.0%)
DIIS solution               ....       0.875 sec  ( 22.9%)
  MO trafo                  ....       0.000 sec  (  0.0 % of DIIS)
  Orb grad                  ....       0.000 sec  (  0.0 % of DIIS)
  Energy W gradient         ....       0.000 sec  (  0.0 % of DIIS)
  DIIS error                ....       0.110 sec  ( 12.6 % of DIIS)
  DIIS work                 ....       0.562 sec  ( 64.2 % of DIIS)
  Form Q                    ....       0.000 sec  (  0.0 % of DIIS)
  Form QpQm                 ....       0.000 sec  (  0.0 % of DIIS)
  Exp/Cayley                ....       0.000 sec  (  0.0 % of DIIS)
  Orb update                ....       0.000 sec  (  0.0 % of DIIS)
  Wake-sleep                ....       0.153 sec  ( 17.5 % of DIIS)
SOSCF solution              ....       0.290 sec  (  7.6%)
  MO trafo                  ....       0.199 sec  ( 68.6 % of SOSCF)
  Orb grad                  ....       0.033 sec  ( 11.4 % of SOSCF)
  Rot update                ....       0.008 sec  (  2.8 % of SOSCF)
  Step                      ....       0.050 sec  ( 17.2 % of SOSCF)
Finished LeanSCF after   3.9 sec

Maximum memory used throughout the entire LEANSCF-calculation: 7.0 MB

-------------------------   --------------------
FINAL SINGLE POINT ENERGY      -996.708070230459
-------------------------   --------------------



           ************************************************************
           *        Program running with 20 parallel MPI-processes    *
           *              working on a common directory               *
           ************************************************************

------------------------------------------------------------------------------
                              ORCA PROPERTY CALCULATIONS
------------------------------------------------------------------------------

GBWName                                 ... D:\hty\creat\code\github\orcacal\Test\ORCA_cal\ORCA_structure\Chloroform_1\input.gbw
Number of atoms                         ...      8
Number of basis functions               ...     84
Max core memory                         ...    400 MB

Electric properties:
Dipole moment                           ... YES
Quadrupole moment                       ...  NO
Static polarizability (Dipole/Dipole)   ...  NO
Static polarizability (Dipole/Quad.)    ...  NO
Static polarizability (Quad./Quad.)     ...  NO
Static polarizability (Velocity)        ...  NO

Atomic electric properties:
Dipole moment                           ...  NO
Quadrupole moment                       ...  NO
Static polarizability                   ...  NO

Choice of electric origin               ... Center of mass
Position of electric origin             ...     1.845792    -0.063559    -0.659763

General magnetic properties:
Magnetizability                         ...  NO

EPR properties:
g-Tensor (aka g-matrix)                 ...  NO
Zero-Field splitting spin-orbit         ...  NO
Zero-field splitting spin-spin          ...  NO
Hyperfine couplings                     ...  NO (   0 nuclei)
Quadrupole couplings                    ...  NO (   0 nuclei)
Contact density                         ...  NO (   0 nuclei)

NMR properties:
Chemical shifts                         ...  NO (   0 nuclei)
Spin-rotation constants                 ...  NO (   0 nuclei)
Spin-spin couplings                     ...  NO (   0 nuclei,    0 pairs)

Choice of magnetic origin               ... GIAO
Position of magnetic origin             ...     0.000000     0.000000     0.000000

Properties with geometric perturbations:
SCF Hessian                             ...  NO
IR spectrum                             ...  NO
VCD spectrum                            ...  NO
X-ray spectroscopy properties:
SCF XES/XAS/RIXS spectra                ...  NO


-------------
DIPOLE MOMENT
-------------

Method             : SCF
Type of density    : Electron Density
Multiplicity       :   1
Irrep              :   0
Energy             :  -996.7080702304594979 Eh
Relativity type    : 
Basis              : AO
                                X                 Y                 Z
Electronic contribution:      6.720279889      -0.193565189      -2.101849329
Nuclear contribution   :     -7.413861795       0.253179594       2.633245536
                        -----------------------------------------
Total Dipole Moment    :     -0.693581906       0.059614406       0.531396207
                        -----------------------------------------
Magnitude (a.u.)       :      0.875780604
Magnitude (Debye)      :      2.226057388



--------------------
Rotational spectrum 
--------------------
 
Rotational constants in cm-1:             0.212032             0.106524             0.075452 
Rotational constants in MHz :          6356.563923          3193.498120          2261.980789 

Dipole components along the rotational axes: 
x,y,z [a.u.] :     0.000001    -0.804203     0.346769 
x,y,z [Debye]:     0.000002    -2.044122     0.881418 

 

Dipole moment calculation done in   0.1 sec 

Maximum memory used throughout the entire PROP-calculation: 2.4 MB

--------------------------------
SUGGESTED CITATIONS FOR THIS RUN
--------------------------------

Below you find a list of papers that are relevant to this ORCA run
We neither can nor want to force you to cite these papers, but we appreciate if you do
You receive ORCA, which is the product of decades of hard work by many enthusiastic individuals, for free
The only thing we kindly ask in return is that you cite our papers,
We deeply appreciate it, if you show your appreciation for ORCA by not just citing the generic ORCA reference.

Please note that relegating all ORCA citations to the supporting information does *not* help us.
SI sections are not indexed - citations you put there will not count into any citation statistics
But we need these citations in order to attract the funding resources that allow us to do what we are doing

Therefore, if you are a happy ORCA user, please consider citing a few of the papers listed below in the main body of your paper

In addition to the list printed below, the program has created the file D:\hty\creat\code\github\orcacal\Test\ORCA_cal\ORCA_structure\Chloroform_1\input.bibtex that contains the list in bibtex format
You can import this file easily into all common literature databanks and citation aid programs


List of essential papers. We consider these as the minimum necessary citations

  1. Neese,F.
     Software update: the ORCA program system, version 5.0
     WIRES Comput. Molec. Sci., 2022 12(1)e1606
     doi.org/10.1002/wcms.1606

List of papers to cite with high priority. The work reported in these papers was absolutely
necessary for this run to complete.
Our perspective: the developers of density functionals and basis sets usually get cited in chemistry papers
Good! But without the algorithms to do something with them, the functionals or basis sets would not do anything.
Hence, in our opinion, the algorithm design and method developments papers are equally worthy of getting cited

  1. Neese,F.
     The SHARK Integral Generation and Digestion System
     J. Comp. Chem., 2022  1-16
     doi.org/10.1002/jcc.26942

List of suggested additional citations. These are papers that are important in the 'surrounding' of 
of this run, or papers that preceded the highly important papers. If you like your results we are grateful for a citation.

  1. Neese,F.
     The ORCA program system
     WIRES Comput. Molec. Sci., 2012 2(1)73-78
     doi.org/10.1002/wcms.81
  2. Neese,F.
     Software update: the ORCA program system, version 4.0
     WIRES Comput. Molec. Sci., 2018 8(1)1-6
     doi.org/10.1002/wcms.1327
  3. Neese,F.; Wennmohs,F.; Becker,U.; Riplinger,C.
     The ORCA quantum chemistry program package
     J. Chem. Phys., 2020 152 Art. No. L224108
     doi.org/10.1063/5.0004608

List of optional additional citations

  1. Neese,F.
     Approximate second-order SCF convergence for spin unrestricted wavefunctions
     Chem. Phys. Lett., 2000 325(1-3)93-98
     doi.org/10.1016/s0009-2614(00)00662-x

Timings for individual modules:

Sum of individual times          ...        7.727 sec (=   0.129 min)
Startup calculation              ...        1.120 sec (=   0.019 min)  14.5 %
SCF iterations                   ...        5.835 sec (=   0.097 min)  75.5 %
Property calculations            ...        0.772 sec (=   0.013 min)  10.0 %
                             ****ORCA TERMINATED NORMALLY****
TOTAL RUN TIME: 0 days 0 hours 0 minutes 9 seconds 20 msec
