[Molden Format]
[Title]
 Molden file created by orca_2mkl for BaseName=D:\hty\creat\code\github\orcacal\Test\ORCA_cal\ORCA_structure\H2O_2\input

[Atoms] AU
O    1   8          0.0168847030         0.7634909321         0.0000000000 
H    2   1         -1.4878059517        -0.3490305272         0.0000000000 
H    3   1          1.4709212487        -0.4144604049         0.0000000000 
[GTO]
  1 0
s   5 1.0 
     2266.1767785000        -1.2615859742
      340.8701019100        -2.2748500410
       77.3631351670        -3.3479623295
       21.4796449400        -3.3299980531
        6.6589433124        -1.3203828288
s   1 1.0 
        0.8097597567         0.6083832301
s   1 1.0 
        0.2553077223         0.2559811911
p   3 1.0 
       17.7215043170         3.2460107647
        3.8635505440         2.5734959178
        1.0480920883         1.1208372892
p   1 1.0 
        0.2764154441         0.2856886381
d   1 1.0 
        1.2000000000         3.9222679946

  2 0
s   3 1.0 
       13.0107010000         0.1634903809
        1.9622572000         0.2773515510
        0.4445379600         0.3157501452
s   1 1.0 
        0.1219496200         0.1470772262
p   1 1.0 
        0.8000000000         1.0784563492

  3 0
s   3 1.0 
       13.0107010000         0.1634903809
        1.9622572000         0.2773515510
        0.4445379600         0.3157501452
s   1 1.0 
        0.1219496200         0.1470772262
p   1 1.0 
        0.8000000000         1.0784563492

[5D]
[7F]
[9G]
[MO]
 Sym=     1a
 Ene= -2.05509755879637E+01
 Spin= Alpha
 Occup= 2.000000
  1      -0.990417648810
  2       0.032796051066
  3      -0.010693117212
  4      -0.000056374853
  5      -0.002549414950
  6       0.000000000000
  7       0.000008903674
  8       0.000402487846
  9       0.000000000000
 10      -0.000660092972
 11       0.000000000000
 12      -0.000000000000
 13       0.000289607561
 14      -0.000012818503
 15      -0.001315616124
 16       0.001742769327
 17      -0.001760680615
 18      -0.001332167100
 19       0.000000000000
 20      -0.001315627771
 21       0.001742772482
 22       0.001700072850
 23      -0.001408704678
 24       0.000000000000
 Sym=     1a
 Ene= -1.30250676546795E+00
 Spin= Alpha
 Occup= 2.000000
  1      -0.279699563932
  2      -0.556243018293
  3      -0.308539045111
  4       0.001737275644
  5       0.078565753095
  6       0.000000000000
  7      -0.000007218586
  8      -0.000327715364
  9      -0.000000000000
 10       0.003929288364
 11      -0.000000000000
 12       0.000000000000
 13      -0.000419404075
 14       0.000018576368
 15      -0.181742281749
 16      -0.006659061773
 17      -0.030902297879
 18      -0.015806351360
 19       0.000000000000
 20      -0.181742724813
 21      -0.006659048226
 22       0.030173369994
 23      -0.017157050257
 24       0.000000000000
 Sym=     1a
 Ene= -6.86254048605386E-01
 Spin= Alpha
 Occup= 2.000000
  1       0.000000159772
  2       0.000000344856
  3       0.000000650009
  4      -0.486975084815
  5       0.010769727154
  6      -0.000000000000
  7      -0.235847838135
  8       0.005215863922
  9      -0.000000000000
 10       0.000000014677
 11       0.000000000000
 12       0.000000000000
 13       0.001110659240
 14       0.025099139979
 15       0.320360910991
 16       0.090836370908
 17       0.022572525264
 18       0.029440738604
 19       0.000000000000
 20      -0.320361321020
 21      -0.090836316996
 22       0.021248986612
 23      -0.030409831673
 24       0.000000000000
 Sym=     1a
 Ene= -5.62113669641463E-01
 Spin= Alpha
 Occup= 2.000000
  1       0.094324935681
  2       0.195736626211
  3       0.320547728510
  4       0.012035374376
  5       0.544213128425
  6       0.000000000000
  7       0.008067266506
  8       0.364783853607
  9      -0.000000000000
 10       0.012133214145
 11       0.000000000000
 12       0.000000000000
 13       0.013287889705
 14      -0.000588008607
 15      -0.203531706850
 16      -0.059202717599
 17      -0.030036610881
 18       0.006668526454
 19      -0.000000000000
 20      -0.203531240795
 21      -0.059202373258
 22       0.030302017211
 23       0.005334236378
 24       0.000000000000
 Sym=     1a
 Ene= -4.95725002117364E-01
 Spin= Alpha
 Occup= 2.000000
  1      -0.000000000000
  2      -0.000000000000
  3      -0.000000000000
  4       0.000000000000
  5       0.000000000000
  6       0.633647363136
  7      -0.000000000000
  8       0.000000000000
  9       0.498332488702
 10      -0.000000000000
 11      -0.000397150203
 12      -0.017959255762
 13      -0.000000000000
 14       0.000000000000
 15       0.000000000000
 16       0.000000000000
 17       0.000000000000
 18       0.000000000000
 19       0.027726965015
 20       0.000000000000
 21       0.000000000000
 22      -0.000000000000
 23       0.000000000000
 24       0.027727000420
 Sym=     1a
 Ene= 1.70960044914690E-01
 Spin= Alpha
 Occup= 0.000000
  1      -0.087409973476
  2      -0.090391537596
  3      -1.064189521392
  4       0.004402797949
  5       0.199069389712
  6      -0.000000000000
  7       0.008398649039
  8       0.379744601451
  9      -0.000000000000
 10       0.011145512860
 11      -0.000000000000
 12       0.000000000000
 13       0.002756501394
 14      -0.000121963479
 15       0.073515256985
 16       0.881027909354
 17       0.014089970360
 18       0.010967194697
 19      -0.000000000000
 20       0.073514993784
 21       0.881026089393
 22      -0.013591361681
 23       0.011579384615
 24       0.000000000000
 Sym=     1a
 Ene= 2.50073778090059E-01
 Spin= Alpha
 Occup= 0.000000
  1       0.000000092592
  2       0.000000056567
  3       0.000001920787
  4       0.292677887073
  5      -0.006472506510
  6      -0.000000000000
  7       0.657460127917
  8      -0.014539699379
  9      -0.000000000000
 10      -0.000000037517
 11       0.000000000000
 12       0.000000000000
 13      -0.000729284674
 14      -0.016481272570
 15       0.034144683611
 16       1.370192049207
 17       0.013384354074
 18       0.008958480437
 19       0.000000000000
 20      -0.034144564810
 21      -1.370194628421
 22       0.012975355770
 23      -0.009541476968
 24      -0.000000000000
 Sym=     1a
 Ene= 7.71403691386809E-01
 Spin= Alpha
 Occup= 0.000000
  1      -0.000000631722
  2      -0.000002461531
  3       0.000003130889
  4       0.279084051737
  5      -0.006169868774
  6      -0.000000000000
  7       0.456908054742
  8      -0.010104219086
  9      -0.000000000000
 10      -0.000000465022
 11      -0.000000000000
 12       0.000000000000
 13       0.004610689935
 14       0.104188741100
 15       0.963922784913
 16      -0.714108127888
 17      -0.051012990009
 18      -0.115925316108
 19       0.000000000000
 20      -0.963912516598
 21       0.714100134761
 22      -0.045836170027
 23       0.118066663196
 24       0.000000000000
 Sym=     1a
 Ene= 8.36180211825868E-01
 Spin= Alpha
 Occup= 0.000000
  1       0.112390272482
  2       0.410255912276
  3      -0.410740164497
  4      -0.007198374485
  5      -0.325573374268
  6       0.000000000000
  7      -0.001512763741
  8      -0.068571135608
  9      -0.000000000000
 10       0.085212902176
 11      -0.000000000000
 12      -0.000000000000
 13      -0.050568366242
 14       0.002238432398
 15      -0.848829315464
 16       0.590112508357
 17       0.222701188836
 18       0.043210707893
 19      -0.000000000000
 20      -0.848841110164
 21       0.590119784569
 22      -0.220573956949
 23       0.053015162599
 24      -0.000000000000
 Sym=     1a
 Ene= 1.18615808695960E+00
 Spin= Alpha
 Occup= 0.000000
  1       0.134221932098
  2       0.590555735012
  3      -0.123615442001
  4       0.017681836073
  5       0.799607471382
  6      -0.000000000000
  7      -0.024987791112
  8      -1.130049059452
  9       0.000000000000
 10       0.001730973357
 11       0.000000000000
 12       0.000000000000
 13      -0.009805682749
 14       0.000433793203
 15      -0.332028975842
 16      -0.018103280601
 17      -0.063103517487
 18      -0.151137789309
 19      -0.000000000000
 20      -0.332030190470
 21      -0.018105761603
 22       0.056361390229
 23      -0.153779896897
 24       0.000000000000
 Sym=     1a
 Ene= 1.20158607119701E+00
 Spin= Alpha
 Occup= 0.000000
  1       0.000000000000
  2       0.000000000000
  3      -0.000000000000
  4       0.000000000000
  5       0.000000000000
  6       0.967054950081
  7      -0.000000000000
  8      -0.000000000000
  9      -1.015893137083
 10      -0.000000000000
 11      -0.000049044870
 12      -0.002220173855
 13       0.000000000000
 14       0.000000000000
 15      -0.000000000000
 16      -0.000000000000
 17      -0.000000000000
 18      -0.000000000000
 19      -0.023575387535
 20       0.000000000000
 21       0.000000000000
 22      -0.000000000000
 23       0.000000000000
 24      -0.023574578115
 Sym=     1a
 Ene= 1.27202577501000E+00
 Spin= Alpha
 Occup= 0.000000
  1      -0.000000602621
  2      -0.000003168040
  3       0.000005524887
  4      -0.779991773478
  5       0.017247846389
  6       0.000000000000
  7       1.697075241153
  8      -0.037529331424
  9      -0.000000000000
 10      -0.000000102148
 11       0.000000000000
 12      -0.000000000000
 13      -0.001468604540
 14      -0.033187994205
 15       0.330051321019
 16       0.748244458647
 17       0.270486310995
 18       0.146357794738
 19      -0.000000000000
 20      -0.330052163077
 21      -0.748246658032
 22       0.263751701353
 23      -0.158172885567
 24       0.000000000000
 Sym=     1a
 Ene= 1.34109456754329E+00
 Spin= Alpha
 Occup= 0.000000
  1       0.246990906405
  2       1.551229971687
  3      -2.714653538722
  4      -0.002375762824
  5      -0.107360166651
  6      -0.000000000000
  7       0.013665662972
  8       0.617848609397
  9       0.000000000000
 10      -0.018733249438
 11       0.000000000000
 12      -0.000000000000
 13       0.061341698944
 14      -0.002714379854
 15       0.510627724071
 16       0.481946613472
 17      -0.001058554026
 18       0.326415921483
 19      -0.000000000000
 20       0.510627128460
 21       0.481945619589
 22       0.015488342476
 23       0.326049442396
 24       0.000000000000
 Sym=     1a
 Ene= 1.59040571488130E+00
 Spin= Alpha
 Occup= 0.000000
  1      -0.000000000000
  2      -0.000000000000
  3       0.000000000000
  4       0.000000000000
  5      -0.000000000000
  6      -0.000000832641
  7      -0.000000000000
  8      -0.000000000000
  9       0.000000623905
 10       0.000000000000
 11       0.168322523830
 12      -0.003722252705
 13       0.000000000000
 14      -0.000000000000
 15      -0.000000000000
 16      -0.000000000000
 17      -0.000000000000
 18       0.000000000000
 19      -0.669032845339
 20      -0.000000000000
 21      -0.000000000000
 22       0.000000000000
 23       0.000000000000
 24       0.669032290711
 Sym=     1a
 Ene= 1.67171254773020E+00
 Spin= Alpha
 Occup= 0.000000
  1      -0.086540721798
  2      -0.705159935940
  3       1.611959590843
  4       0.002860444571
  5       0.129336246379
  6      -0.000000000000
  7      -0.025744594230
  8      -1.164164529961
  9      -0.000000000000
 10       0.113053513089
 11      -0.000000000000
 12      -0.000000000000
 13       0.157461186486
 14      -0.006967783177
 15      -0.710316227184
 16      -0.168017552792
 17      -0.439784230550
 18       0.448524450849
 19       0.000000000000
 20      -0.710317069307
 21      -0.168018149275
 22       0.459182366104
 23       0.428644037382
 24       0.000000000000
 Sym=     1a
 Ene= 1.80281323475739E+00
 Spin= Alpha
 Occup= 0.000000
  1      -0.000000000000
  2      -0.000000000000
  3       0.000000000000
  4      -0.000000000000
  5       0.000000000000
  6      -0.019757587497
  7       0.000000000000
  8      -0.000000000000
  9       0.572168016099
 10       0.000000000000
 11       0.004412278194
 12       0.199521705910
 13       0.000000000000
 14       0.000000000000
 15      -0.000000000000
 16      -0.000000000000
 17      -0.000000000000
 18       0.000000000000
 19      -0.735685508282
 20      -0.000000000000
 21      -0.000000000000
 22       0.000000000000
 23       0.000000000000
 24      -0.735686131752
 Sym=     1a
 Ene= 2.02360052774347E+00
 Spin= Alpha
 Occup= 0.000000
  1      -0.000000086948
  2      -0.000000461049
  3      -0.000000206501
  4       0.048965724934
  5      -0.001083007684
  6       0.000000000000
  7      -0.807532762305
  8       0.017858178750
  9      -0.000000000000
 10       0.000000005103
 11      -0.000000000000
 12       0.000000000000
 13      -0.000974599369
 14      -0.022026774083
 15      -0.340942115112
 16      -0.077092763907
 17       0.436849701800
 18      -0.670522392007
 19       0.000000000000
 20       0.340942448266
 21       0.077092913575
 22       0.466064675339
 23       0.650555268390
 24       0.000000000000
 Sym=     1a
 Ene= 2.48303056541572E+00
 Spin= Alpha
 Occup= 0.000000
  1       0.000003015730
  2       0.000012546351
  3       0.000015190045
  4      -0.751957571864
  5       0.016617274193
  6      -0.000000000000
  7      -0.113994232261
  8       0.002515939157
  9       0.000000000000
 10       0.000005581944
 11       0.000000000000
 12       0.000000000000
 13      -0.006982020384
 14      -0.157760271800
 15      -0.189847620112
 16      -0.297226792185
 17      -0.665701473262
 18      -0.510324137644
 19      -0.000000000000
 20       0.189831545621
 21       0.297218391952
 22      -0.642461144316
 23       0.539233548354
 24      -0.000000000000
 Sym=     1a
 Ene= 2.53113700750696E+00
 Spin= Alpha
 Occup= 0.000000
  1      -0.148659627197
  2      -0.674012452936
  3      -0.680114153566
  4       0.012972945418
  5       0.587372017113
  6       0.000000000000
  7       0.004674380866
  8       0.211464353062
  9       0.000000000000
 10      -0.271881868508
 11       0.000000000000
 12      -0.000000000000
 13       0.054923041084
 14      -0.002433813071
 15       0.392166726916
 16       0.191212207369
 17       0.720629232067
 18       0.471410610651
 19      -0.000000000000
 20       0.392175902205
 21       0.191224390339
 22      -0.699112614585
 23       0.502829499032
 24       0.000000000000
 Sym=     1a
 Ene= 3.29670844489822E+00
 Spin= Alpha
 Occup= 0.000000
  1      -0.000000000000
  2      -0.000000000000
  3       0.000000000000
  4       0.000000000000
  5      -0.000000000000
  6       0.023427340467
  7       0.000000000000
  8      -0.000000000000
  9      -0.274665909166
 10      -0.000000000000
 11       0.022630217052
 12       1.022918315449
 13       0.000000000000
 14      -0.000000000000
 15      -0.000000000000
 16       0.000000000000
 17      -0.000000000000
 18      -0.000000000000
 19       0.383354672808
 20      -0.000000000000
 21      -0.000000000000
 22       0.000000000000
 23      -0.000000000000
 24       0.383348951806
 Sym=     1a
 Ene= 3.35114388538386E+00
 Spin= Alpha
 Occup= 0.000000
  1       0.000000000000
  2       0.000000000000
  3       0.000000000000
  4       0.000000000000
  5      -0.000000000000
  6      -0.000000041296
  7      -0.000000000000
  8      -0.000000000000
  9       0.000002678293
 10       0.000000000000
 11       1.045426567630
 12      -0.023128048526
 13      -0.000000000000
 14       0.000000000000
 15      -0.000000000000
 16      -0.000000000000
 17      -0.000000000000
 18      -0.000000000000
 19       0.361520113710
 20       0.000000000000
 21       0.000000000000
 22       0.000000000000
 23       0.000000000000
 24      -0.361527459430
 Sym=     1a
 Ene= 3.52313314753741E+00
 Spin= Alpha
 Occup= 0.000000
  1       0.000237222653
  2      -0.086115548253
  3       0.476297257366
  4      -0.000083686545
  5      -0.003780340276
  6      -0.000000000000
  7      -0.011028882779
  8      -0.498685741175
  9      -0.000000000000
 10      -0.381857384096
 11      -0.000000000000
 12       0.000000000000
 13      -0.997243722288
 14       0.044128935229
 15      -0.273938924617
 16      -0.051107324018
 17      -0.350241083475
 18       0.311453316324
 19      -0.000000000000
 20      -0.273938489744
 21      -0.051107101663
 22       0.363667535465
 23       0.295666739867
 24       0.000000000000
 Sym=     1a
 Ene= 3.86284768922498E+00
 Spin= Alpha
 Occup= 0.000000
  1       0.067653701241
  2       0.065074582102
  3       1.791929505858
  4      -0.007546395196
  5      -0.341255835164
  6      -0.000000000000
  7      -0.018877996184
  8      -0.853596522806
  9       0.000000000000
 10      -1.053851201415
 11       0.000000000000
 12      -0.000000000000
 13       0.451332981619
 14      -0.019969811135
 15      -1.054360175459
 16      -0.217224130902
 17      -0.606433468420
 18      -0.456175062895
 19      -0.000000000000
 20      -1.054359651656
 21      -0.217223573049
 22       0.585672767750
 23      -0.482536974781
 24      -0.000000000000
 Sym=     1a
 Ene= 4.19680754533601E+00
 Spin= Alpha
 Occup= 0.000000
  1       0.000000287960
  2       0.000001573669
  3       0.000004683523
  4       0.420932315649
  5      -0.009310083334
  6       0.000000000000
  7       1.053153868471
  8      -0.023292286791
  9       0.000000000000
 10      -0.000002041637
 11       0.000000000000
 12      -0.000000000000
 13      -0.058220882417
 14      -1.315719055032
 15       0.962306708749
 16       0.246107132724
 17       0.600379472623
 18       0.474605511587
 19       0.000000000000
 20      -0.962313670926
 21      -0.246108042811
 22       0.578814397228
 23      -0.500684775213
 24      -0.000000000000
