
                                 *****************
                                 * O   R   C   A *
                                 *****************

                                            #,                                       
                                            ###                                      
                                            ####                                     
                                            #####                                    
                                            ######                                   
                                           ########,                                 
                                     ,,################,,,,,                         
                               ,,#################################,,                 
                          ,,##########################################,,             
                       ,#########################################, ''#####,          
                    ,#############################################,,   '####,        
                  ,##################################################,,,,####,       
                ,###########''''           ''''###############################       
              ,#####''   ,,,,##########,,,,          '''####'''          '####       
            ,##' ,,,,###########################,,,                        '##       
           ' ,,###''''                  '''############,,,                           
         ,,##''                                '''############,,,,        ,,,,,,###''
      ,#''                                            '''#######################'''  
     '                                                          ''''####''''         
             ,#######,   #######,   ,#######,      ##                                
            ,#'     '#,  ##    ##  ,#'     '#,    #''#        ,####,   ,####,        
            ##       ##  ##   ,#'  ##            #'  '#       #'       #'  '#        
            ##       ##  #######   ##           ,######,      #####,   #    #        
            '#,     ,#'  ##    ##  '#,     ,#' ,#      #,     #,   #   #,  ,#        
             '#######'   ##     ##  '#######'  #'      '#     '####' # '####'        



                #########################################################
                #                        -***-                          #
                #          Department of theory and spectroscopy        #
                #                                                       #
                #                      Frank Neese                      #
                #                                                       #
                #     Directorship, Architecture, Infrastructure        #
                #                    SHARK, DRIVERS                     #
                #        Core code/Algorithms in most modules           #
                #                                                       #
                #        Max Planck Institute fuer Kohlenforschung      #
                #                Kaiser Wilhelm Platz 1                 #
                #                 D-45470 Muelheim/Ruhr                 #
                #                      Germany                          #
                #                                                       #
                #                  All rights reserved                  #
                #                        -***-                          #
                #########################################################


                         Program Version 6.0.0  -   RELEASE   -


 With contributions from (in alphabetic order):
   Daniel Aravena         : Magnetic Suceptibility
   Michael Atanasov       : Ab Initio Ligand Field Theory (pilot matlab implementation)
   Alexander A. Auer      : GIAO ZORA, VPT2 properties, NMR spectrum
   Ute Becker             : All parallelization in ORCA, NUMFREQ, NUMCALC
   Giovanni Bistoni       : ED, misc. LED, open-shell LED, HFLD
   Martin Brehm           : Molecular dynamics
   Dmytro Bykov           : pre 5.0 version of the SCF Hessian
   Marcos Casanova-Páez   : Triplet and SCS-CIS(D). UHF-(DLPNO)-IP/EA/STEOM-CCSD. UHF-CVS-IP/STEOM-CCSD
   Vijay G. Chilkuri      : MRCI spin determinant printing, contributions to CSF-ICE
   Pauline Colinet        : FMM embedding
   Dipayan Datta          : RHF DLPNO-CCSD density
   Achintya Kumar Dutta   : EOM-CC, STEOM-CC
   Nicolas Foglia         : Exact transition moments, OPA infrastructure, MCD improvements
   Dmitry Ganyushin       : Spin-Orbit,Spin-Spin,Magnetic field MRCI
   Miquel Garcia          : C-PCM and meta-GGA Hessian, CCSD/C-PCM, Gaussian charge scheme
   Tiago L. C. Gouveia    : GS-ROHF, GS-ROCIS
   Yang Guo               : DLPNO-NEVPT2, F12-NEVPT2, CIM, IAO-localization
   Andreas Hansen         : Spin unrestricted coupled pair/coupled cluster methods
   Ingolf Harden          : AUTO-CI MPn and infrastructure 
   Benjamin Helmich-Paris : MC-RPA, TRAH-(SCF,CASSCF), AVAS, COSX integrals, SCF dyn. polar.
   Lee Huntington         : MR-EOM, pCC
   Robert Izsak           : Overlap fitted RIJCOSX, COSX-SCS-MP3, EOM
   Riya Kayal             : Wick's Theorem for AUTO-CI, AUTO-CI UHF-CCSDT
   Emily Kempfer          : AUTO-CI, RHF CISDT and CCSDT
   Christian Kollmar      : KDIIS, OOCD, Brueckner-CCSD(T), CCSD density, CASPT2, CASPT2-K, improved NEVPT2
   Axel Koslowski         : Symmetry handling
   Simone Kossmann        : Meta GGA functionals, TD-DFT gradient, OOMP2, (MP2 Hessian; deprecated post 5.0)
   Lucas Lang             : DCDCAS
   Marvin Lechner         : AUTO-CI (C++ implementation), FIC-MRCC
   Spencer Leger          : CASSCF response
   Dagmar Lenk            : GEPOL surface, SMD, ORCA-2-JSON
   Dimitrios Liakos       : Extrapolation schemes; Compound Job, initial MDCI parallelization
   Dimitrios Manganas     : Further ROCIS development; embedding schemes. LFT, Crystal Embedding
   Dimitrios Pantazis     : SARC Basis sets
   Anastasios Papadopoulos: AUTO-CI, single reference methods and gradients
   Taras Petrenko         : pre 6.0 DFT Hessian and TD-DFT gradient, (ASA, deprecated), ECA, 1-Electron XAS/XES, NRVS
   Peter Pinski           : DLPNO-MP2, DLPNO-MP2 Gradient
   Christoph Reimann      : Effective Core Potentials
   Marius Retegan         : Local ZFS, SOC
   Christoph Riplinger    : Optimizer, TS searches, QM/MM, DLPNO-CCSD(T), (RO)-DLPNO pert. Triples
   Michael Roemelt        : Original ROCIS implementation
   Masaaki Saitow         : Open-shell DLPNO-CCSD energy and density
   Barbara Sandhoefer     : DKH picture change effects
   Kantharuban Sivalingam : CASSCF convergence/infrastructure, NEVPT2 and variants, FIC-MRCI
   Bernardo de Souza      : ESD, SOC TD-DFT
   Georgi Stoychev        : AutoAux, RI-MP2 NMR, DLPNO-MP2 response, X2C
   Van Anh Tran           : RI-MP2 g-tensors
   Willem Van den Heuvel  : Paramagnetic NMR
   Zikuan Wang            : NOTCH, Electric field optimization 
   Frank Wennmohs         : Technical directorship and infrastructure
   Hang Xu                : AUTO-CI-Response properties 


 We gratefully acknowledge several colleagues who have allowed us to
 interface, adapt or use parts of their codes:
   Stefan Grimme, W. Hujo, H. Kruse, P. Pracht,  : VdW corrections, initial TS optimization,
                  C. Bannwarth, S. Ehlert,         DFT functionals, gCP, sTDA/sTD-DF
                  L. Wittmann, M. Mueller
   Ed Valeev, F. Pavosevic, A. Kumar             : LibInt (2-el integral package), F12 methods
   Garnet Chan, S. Sharma, J. Yang, R. Olivares  : DMRG
   Ulf Ekstrom                                   : XCFun DFT Library
   Mihaly Kallay                                 : mrcc  (arbitrary order and MRCC methods)
   Frank Weinhold                                : gennbo (NPA and NBO analysis)
   Simon Mueller                                 : openCOSMO-RS
   Christopher J. Cramer and Donald G. Truhlar   : smd solvation model
   Lars Goerigk                                  : TD-DFT with DH, B97 family of functionals
   V. Asgeirsson, H. Jonsson                     : NEB implementation
   FAccTs GmbH                                   : IRC, NEB, NEB-TS, DLPNO-Multilevel, CI-OPT
                                                   MM, QMMM, 2- and 3-layer-ONIOM, Crystal-QMMM,
                                                   LR-CPCM, SF, NACMEs, symmetry and pop. for TD-DFT,
                                                   nearIR, NL-DFT gradient (VV10), updates on ESD,
                                                   ML-optimized integration grids, MBIS, APM,
                                                   GOAT, DOCKER, SOLVATOR, interface openCOSMO-RS
   S Lehtola, MJT Oliveira, MAL Marques          : LibXC Library
   Liviu Ungur et al                             : ANISO software


 Your calculation uses the libint2 library for the computation of 2-el integrals
 For citations please refer to: http://libint.valeyev.net

 Your ORCA version has been built with support for libXC version: 6.2.2
 For citations please refer to: https://libxc.gitlab.io

 This ORCA versions uses:
   CBLAS   interface :  Fast vector & matrix operations
   LAPACKE interface :  Fast linear algebra routines
   Shared memory     :  Shared parallel matrices


NOTE: MaxCore=1000 MB was set to SCF,MP2,MDCI,CIPSI,MRCI and CIS
      => If you want to overwrite this, your respective input block should be placed after the MaxCore statement
================================================================================

----- Orbital basis set information -----
Your calculation utilizes the basis: def2-SVP
   F. Weigend and R. Ahlrichs, Phys. Chem. Chem. Phys. 7, 3297 (2005).

================================================================================
                                        WARNINGS
                       Please study these warnings very carefully!
================================================================================

WARNING: Old DensityContainer found on disk!
         Will remove this file - 
         If you want to keep old densities, please start your calculation with a different basename. 


================================================================================
                                       INPUT FILE
================================================================================
NAME = D:\hty\creat\code\github\orcacal\Test\ORCA_cal\ORCA_structure\H2O_2\input.inp
|  1> ! HF DEF2-SVP LARGEPRINT
|  2> % pal nprocs 20 end
|  3> % maxcore 1000
|  4> * xyz 0 1
|  5> O 0.008935 0.404022 0.000000
|  6> H -0.787313 -0.184699 0.000000
|  7> H 0.778378 -0.219323 0.000000
|  8> *
|  9> 
| 10>                          ****END OF INPUT****
================================================================================

                       ****************************
                       * Single Point Calculation *
                       ****************************

---------------------------------
CARTESIAN COORDINATES (ANGSTROEM)
---------------------------------
  O      0.008935    0.404022    0.000000
  H     -0.787313   -0.184699    0.000000
  H      0.778378   -0.219323    0.000000

----------------------------
CARTESIAN COORDINATES (A.U.)
----------------------------
  NO LB      ZA    FRAG     MASS         X           Y           Z
   0 O     8.0000    0    15.999    0.016885    0.763491    0.000000
   1 H     1.0000    0     1.008   -1.487806   -0.349031    0.000000
   2 H     1.0000    0     1.008    1.470921   -0.414460    0.000000

--------------------------------
INTERNAL COORDINATES (ANGSTROEM)
--------------------------------
 O      0   0   0     0.000000000000     0.00000000     0.00000000
 H      1   0   0     0.990254155934     0.00000000     0.00000000
 H      1   2   0     0.990253260168   104.51013468     0.00000000

---------------------------
INTERNAL COORDINATES (A.U.)
---------------------------
 O      0   0   0     0.000000000000     0.00000000     0.00000000
 H      1   0   0     1.871309157693     0.00000000     0.00000000
 H      1   2   0     1.871307464941   104.51013468     0.00000000

---------------------
BASIS SET INFORMATION
---------------------
There are 2 groups of distinct atoms

 Group   1 Type O   : 7s4p1d contracted to 3s2p1d pattern {511/31/1}
 Group   2 Type H   : 4s1p contracted to 2s1p pattern {31/1}

Atom   0O    basis set group =>   1
Atom   1H    basis set group =>   2
Atom   2H    basis set group =>   2

-------------------------
BASIS SET IN INPUT FORMAT
-------------------------

 # Basis set for element : H 
 NewGTO H 
 S 3 
   1      13.0107010000      0.0334854848
   2       1.9622572000      0.2347218709
   3       0.4445379600      0.8137702853
 S 1 
   1       0.1219496200      1.0000000000
 P 1 
   1       0.8000000000      1.0000000000
  end;

 # Basis set for element : O 
 NewGTO O 
 S 5 
   1    2266.1767785000     -0.0053893504
   2     340.8701019100     -0.0402347214
   3      77.3631351670     -0.1800818421
   4      21.4796449400     -0.4682885766
   5       6.6589433124     -0.4469261716
 S 1 
   1       0.8097597567      1.0000000000
 S 1 
   1       0.2553077223      1.0000000000
 P 3 
   1      17.7215043170      0.0626302488
   2       3.8635505440      0.3333113849
   3       1.0480920883      0.7414863830
 P 1 
   1       0.2764154441      1.0000000000
 D 1 
   1       1.2000000000      1.0000000000
  end;


Checking for AutoStart:
The File: D:\hty\creat\code\github\orcacal\Test\ORCA_cal\ORCA_structure\H2O_2\input.gbw exists
Trying to determine its content:
     ... Fine, the file contains calculation information
     ... Fine, the calculation information was read
     ... Fine, the file contains a basis set
     ... Fine, the basis set was read
     ... Fine, the file contains a geometry
     ... Fine, the geometry was read
     ... Fine, the file contains a set of orbitals
     ... Fine, the orbitals can be read
     => possible old guess file was deleted
     => GBW file was renamed to GES file
     => GES file is set as startup file
     => Guess is set to MORead
     ... now leaving AutoStart



           ************************************************************
           *        Program running with 20 parallel MPI-processes    *
           *              working on a common directory               *
           ************************************************************
------------------------------------------------------------------------------
                             ORCA STARTUP CALCULATIONS
------------------------------------------------------------------------------
------------------------------------------------------------------------------
                   ___                                                        
                  /   \      - P O W E R E D   B Y -                         
                 /     \                                                     
                 |  |  |   _    _      __       _____    __    __             
                 |  |  |  | |  | |    /  \     |  _  \  |  |  /  |          
                  \  \/   | |  | |   /    \    | | | |  |  | /  /          
                 / \  \   | |__| |  /  /\  \   | |_| |  |  |/  /          
                |  |  |   |  __  | /  /__\  \  |    /   |      \           
                |  |  |   | |  | | |   __   |  |    \   |  |\   \          
                \     /   | |  | | |  |  |  |  | |\  \  |  | \   \       
                 \___/    |_|  |_| |__|  |__|  |_| \__\ |__|  \__/        
                                                                              
                      - O R C A' S   B I G   F R I E N D -                    
                                      &                                       
                       - I N T E G R A L  F E E D E R -                       
                                                                              
 v1 FN, 2020, v2 2021, v3 2022-2024                                           
------------------------------------------------------------------------------


----------------------
SHARK INTEGRAL PACKAGE
----------------------

Number of atoms                             ...      3
Number of basis functions                   ...     24
Number of shells                            ...     12
Maximum angular momentum                    ...      2
Integral batch strategy                     ... SHARK/LIBINT Hybrid
RI-J (if used) integral strategy            ... SPLIT-RIJ (Revised 2003 algorithm where possible)
Printlevel                                  ...      1
Contraction scheme used                     ... SEGMENTED contraction
Prescreening option                         ... SCHWARTZ
   Thresh                                   ... 1.000e-10
   Tcut                                     ... 1.000e-11
   Tpresel                                  ... 1.000e-11 
Coulomb Range Separation                    ... NOT USED
Exchange Range Separation                   ... NOT USED
Multipole approximations                    ... NOT USED
Finite Nucleus Model                        ... NOT USED
CABS basis                                  ... NOT available
Auxiliary Coulomb fitting basis             ... NOT available
Auxiliary J/K fitting basis                 ... NOT available
Auxiliary Correlation fitting basis         ... NOT available
Auxiliary 'external' fitting basis          ... NOT available

Checking pre-screening integrals            ... done (  0.0 sec) Dimension = 12
Check shell pair data                       ... done (  0.0 sec)
Shell pair information
Shell pair cut-off parameter TPreSel        ...   1.0e-11
Total number of shell pairs                 ...        78
Shell pairs after pre-screening             ...        78
Total number of primitive shell pairs       ...       272
Primitive shell pairs kept                  ...       263
          la=0 lb=0:     28 shell pairs
          la=1 lb=0:     28 shell pairs
          la=1 lb=1:     10 shell pairs
          la=2 lb=0:      7 shell pairs
          la=2 lb=1:      4 shell pairs
          la=2 lb=2:      1 shell pairs

Calculating one electron integrals          ... done (  0.0 sec)
Calculating Nuclear repulsion               ... done (  0.0 sec) ENN=      8.888068321640 Eh

Diagonalization of the overlap matrix:
Smallest eigenvalue                        ... 4.008e-02
Time for diagonalization                   ...    0.000 sec
Threshold for overlap eigenvalues          ... 1.000e-07
Number of eigenvalues below threshold      ... 0
Time for construction of square roots      ...    0.000 sec
Total time needed                          ...    0.010 sec

-------------------
DFT GRID GENERATION
-------------------

General Integration Accuracy     IntAcc      ... 4.388
Radial Grid Type                 RadialGrid  ... OptM3 with GC (2021)
Angular Grid (max. ang.)         AngularGrid ... 4 (Lebedev-302)
Angular grid pruning method      GridPruning ... 4 (adaptive)
Weight generation scheme         WeightScheme... mBecke (2022)
Basis function cutoff            BFCut       ... 1.0000e-10
Integration weight cutoff        WCut        ... 1.0000e-14
Partially contracted basis set               ... off
Rotationally invariant grid construction     ... off
Angular grids for H and He will be reduced by one unit

Total number of grid points                  ...    12757
Total number of batches                      ...      201
Average number of points per batch           ...       63
Average number of grid points per atom       ...     4252
Initializing property integral containers    ... done (  0.0 sec)

SHARK setup successfully completed in   0.1 seconds

Maximum memory used throughout the entire STARTUP-calculation: 6.7 MB


           ************************************************************
           *        Program running with 20 parallel MPI-processes    *
           *              working on a common directory               *
           ************************************************************
-------------------------------------------------------------------------------
                                 ORCA GUESS
                   Start orbitals & Density for SCF / CASSCF
-------------------------------------------------------------------------------

------------
SCF SETTINGS
------------
Hamiltonian:
 Ab initio Hamiltonian  Method          .... Hartree-Fock(GTOs)


General Settings:
 Integral files         IntName         .... D:\hty\creat\code\github\orcacal\Test\ORCA_cal\ORCA_structure\H2O_2\input
 Hartree-Fock type      HFTyp           .... RHF
 Total Charge           Charge          ....    0
 Multiplicity           Mult            ....    1
 Number of Electrons    NEL             ....   10
 Basis Dimension        Dim             ....   24
 Nuclear Repulsion      ENuc            ....      8.8880683216 Eh

Convergence Acceleration:
 AO-DIIS                CNVDIIS         .... on
   Start iteration      DIISMaxIt       ....    12
   Startup error        DIISStart       ....  0.200000
   # of expansion vecs  DIISMaxEq       ....     5
   Bias factor          DIISBfac        ....   1.050
   Max. coefficient     DIISMaxC        ....  10.000
 MO-DIIS                CNVKDIIS        .... off
 Trust-Rad. Augm. Hess. CNVTRAH         .... auto
   Auto Start mean grad. ratio tolernc. ....  1.125000
   Auto Start start iteration           ....     1
   Auto Start num. interpolation iter.  ....    10
   Max. Number of Micro iterations      ....    24
   Max. Number of Macro iterations      .... Maxiter - #DIIS iter
   Number of Davidson start vectors     ....     2
   Converg. threshold    (grad. norm)   ....   5.000e-05
   Grad. Scal. Fac. for Micro threshold ....   0.100
   Minimum threshold for Micro iter.    ....   1.000e-02
   NR start threshold (gradient norm)   ....   1.000e-04
   Initial trust radius                 ....   0.400
   Minimum AH scaling param. (alpha)    ....   1.000
   Maximum AH scaling param. (alpha)    .... 1000.000
   Quad. conv. algorithm                .... NR
   White noise on init. David. guess    .... on
   Maximum white noise                  ....   0.010
   Pseudo random numbers                .... off
   Inactive MOs                         .... canonical
   Orbital update algorithm             .... Taylor
   Preconditioner                       .... Diag
   Full preconditioner red. dimension   ....   250
 SOSCF                  CNVSOSCF        .... on
   Start iteration      SOSCFMaxIt      ....   150
   Startup grad/error   SOSCFStart      ....  0.003300
   Hessian update       SOSCFHessUp     .... L-BFGS
 Level Shifting         CNVShift        .... on
   Level shift para.    LevelShift      ....    0.2500
   Turn off err/grad.   ShiftErr        ....    0.0010
 Zerner damping         CNVZerner       .... off
 Static damping         CNVDamp         .... on
   Fraction old density DampFac         ....    0.7000
   Max. Damping (<1)    DampMax         ....    0.9800
   Min. Damping (>=0)   DampMin         ....    0.0000
   Turn off err/grad.   DampErr         ....    0.1000

SCF Procedure:
 Maximum # iterations   MaxIter         ....   125
 SCF integral mode      SCFMode         .... Direct
   Integral package                     .... SHARK and LIBINT hybrid scheme
 Reset frequency        DirectResetFreq ....    20
 Integral Threshold     Thresh          ....  1.000e-10 Eh
 Primitive CutOff       TCut            ....  1.000e-11 Eh

Convergence Tolerance:
 Convergence Check Mode ConvCheckMode   .... Total+1el-Energy
 Convergence forced     ConvForced      .... 0
 Energy Change          TolE            ....  1.000e-06 Eh
 1-El. energy change                    ....  1.000e-03 Eh
 Orbital Gradient       TolG            ....  5.000e-05
 Orbital Rotation angle TolX            ....  5.000e-05
 DIIS Error             TolErr          ....  1.000e-06

---------------------
INITIAL GUESS: MOREAD
---------------------
Guess MOs are being read from file: D:\hty\creat\code\github\orcacal\Test\ORCA_cal\ORCA_structure\H2O_2\input.ges
Input Geometry matches current geometry (good)
Input basis set matches current basis set (good)
Occupation numbers will be reassigned to an Aufbau configuration
MOs were renormalized
MOs were reorthogonalized (Cholesky)
                      ------------------
                      INITIAL GUESS DONE (   0.1 sec)
                      ------------------
----------------------
INITIAL GUESS ORBITALS
----------------------
                      0         1         2         3         4         5   
                 -20.55098  -1.30251  -0.68625  -0.56211  -0.49573   0.17096
                   2.00000   2.00000   2.00000   2.00000   2.00000   0.00000
                  --------  --------  --------  --------  --------  --------
  0O   1s         0.990418  0.279700 -0.000000 -0.094325  0.000000  0.087410
  0O   2s        -0.032796  0.556243 -0.000000 -0.195737  0.000000  0.090392
  0O   3s         0.010693  0.308539 -0.000001 -0.320548  0.000000  1.064190
  0O   1pz       -0.000000 -0.000000  0.000000 -0.000000 -0.633647  0.000000
  0O   1px        0.000056 -0.001737  0.486975 -0.012035 -0.000000 -0.004403
  0O   1py        0.002549 -0.078566 -0.010770 -0.544213  0.000000 -0.199069
  0O   2pz       -0.000000  0.000000  0.000000 -0.000000 -0.498332  0.000000
  0O   2px       -0.000009  0.000007  0.235848 -0.008067 -0.000000 -0.008399
  0O   2py       -0.000402  0.000328 -0.005216 -0.364784  0.000000 -0.379745
  0O   1dz2       0.000660 -0.003929 -0.000000 -0.012133  0.000000 -0.011146
  0O   1dxz       0.000000  0.000000 -0.000000 -0.000000  0.000397  0.000000
  0O   1dyz       0.000000 -0.000000 -0.000000 -0.000000  0.017959 -0.000000
  0O   1dx2y2    -0.000290  0.000419 -0.001111 -0.013288  0.000000 -0.002757
  0O   1dxy       0.000013 -0.000019 -0.025099  0.000588  0.000000  0.000122
  1H   1s         0.001316  0.181742 -0.320361  0.203532 -0.000000 -0.073515
  1H   2s        -0.001743  0.006659 -0.090836  0.059203 -0.000000 -0.881028
  1H   1pz       -0.000000 -0.000000 -0.000000  0.000000 -0.027727 -0.000000
  1H   1px        0.001761  0.030902 -0.022573  0.030037 -0.000000 -0.014090
  1H   1py        0.001332  0.015806 -0.029441 -0.006669 -0.000000 -0.010967
  2H   1s         0.001316  0.181743  0.320361  0.203531 -0.000000 -0.073515
  2H   2s        -0.001743  0.006659  0.090836  0.059202 -0.000000 -0.881026
  2H   1pz       -0.000000 -0.000000 -0.000000 -0.000000 -0.027727 -0.000000
  2H   1px       -0.001700 -0.030173 -0.021249 -0.030302  0.000000  0.013591
  2H   1py        0.001409  0.017157  0.030410 -0.005334  0.000000 -0.011579
                      6         7         8         9        10        11   
                   0.25007   0.77140   0.83618   1.18616   1.20159   1.27203
                   0.00000   0.00000   0.00000   0.00000   0.00000   0.00000
                  --------  --------  --------  --------  --------  --------
  0O   1s        -0.000000  0.000001 -0.112390  0.134222 -0.000000 -0.000001
  0O   2s        -0.000000  0.000002 -0.410256  0.590556 -0.000000 -0.000003
  0O   3s        -0.000002 -0.000003  0.410740 -0.123615  0.000000  0.000006
  0O   1pz        0.000000  0.000000 -0.000000  0.000000  0.967055  0.000000
  0O   1px       -0.292678 -0.279084  0.007198  0.017682  0.000000 -0.779992
  0O   1py        0.006473  0.006170  0.325573  0.799607 -0.000000  0.017248
  0O   2pz        0.000000 -0.000000 -0.000000 -0.000000 -1.015893 -0.000000
  0O   2px       -0.657460 -0.456908  0.001513 -0.024988 -0.000000  1.697075
  0O   2py        0.014540  0.010104  0.068571 -1.130049  0.000000 -0.037529
  0O   1dz2       0.000000  0.000000 -0.085213  0.001731 -0.000000 -0.000000
  0O   1dxz       0.000000 -0.000000 -0.000000 -0.000000 -0.000049  0.000000
  0O   1dyz      -0.000000  0.000000 -0.000000 -0.000000 -0.002220 -0.000000
  0O   1dx2y2     0.000729 -0.004611  0.050568 -0.009806  0.000000 -0.001469
  0O   1dxy       0.016481 -0.104189 -0.002238  0.000434  0.000000 -0.033188
  1H   1s        -0.034145 -0.963923  0.848829 -0.332029  0.000000  0.330051
  1H   2s        -1.370192  0.714108 -0.590113 -0.018103 -0.000000  0.748244
  1H   1pz       -0.000000  0.000000  0.000000  0.000000 -0.023575 -0.000000
  1H   1px       -0.013384  0.051013 -0.222701 -0.063104  0.000000  0.270486
  1H   1py       -0.008958  0.115925 -0.043211 -0.151138  0.000000  0.146358
  2H   1s         0.034145  0.963913  0.848841 -0.332030  0.000000 -0.330052
  2H   2s         1.370195 -0.714100 -0.590120 -0.018106  0.000000 -0.748247
  2H   1pz       -0.000000  0.000000  0.000000 -0.000000 -0.023575  0.000000
  2H   1px       -0.012975  0.045836  0.220574  0.056361 -0.000000  0.263752
  2H   1py        0.009541 -0.118067 -0.053015 -0.153780  0.000000 -0.158173
                     12        13        14        15        16        17   
                   1.34109   1.59041   1.67171   1.80281   2.02360   2.48303
                   0.00000   0.00000   0.00000   0.00000   0.00000   0.00000
                  --------  --------  --------  --------  --------  --------
  0O   1s         0.246991  0.000000 -0.086541 -0.000000 -0.000000 -0.000003
  0O   2s         1.551230  0.000000 -0.705160 -0.000000 -0.000000 -0.000013
  0O   3s        -2.714654  0.000000  1.611960  0.000000 -0.000000 -0.000015
  0O   1pz        0.000000 -0.000001  0.000000 -0.019758  0.000000  0.000000
  0O   1px       -0.002376  0.000000  0.002860 -0.000000  0.048966  0.751958
  0O   1py       -0.107360  0.000000  0.129336  0.000000 -0.001083 -0.016617
  0O   2pz        0.000000  0.000001 -0.000000  0.572168  0.000000  0.000000
  0O   2px        0.013666 -0.000000 -0.025745  0.000000 -0.807533  0.113994
  0O   2py        0.617849 -0.000000 -1.164165 -0.000000  0.017858 -0.002516
  0O   1dz2      -0.018733 -0.000000  0.113054  0.000000  0.000000 -0.000006
  0O   1dxz       0.000000  0.168323  0.000000  0.004412 -0.000000  0.000000
  0O   1dyz       0.000000 -0.003722 -0.000000  0.199522 -0.000000 -0.000000
  0O   1dx2y2     0.061342 -0.000000  0.157461  0.000000 -0.000975  0.006982
  0O   1dxy      -0.002714 -0.000000 -0.006968  0.000000 -0.022027  0.157760
  1H   1s         0.510628 -0.000000 -0.710316 -0.000000 -0.340942  0.189848
  1H   2s         0.481947 -0.000000 -0.168018 -0.000000 -0.077093  0.297227
  1H   1pz       -0.000000 -0.669033  0.000000 -0.735686 -0.000000 -0.000000
  1H   1px       -0.001059  0.000000 -0.439784 -0.000000  0.436850  0.665701
  1H   1py        0.326416 -0.000000  0.448524  0.000000 -0.670522  0.510324
  2H   1s         0.510627  0.000000 -0.710317 -0.000000  0.340942 -0.189832
  2H   2s         0.481946  0.000000 -0.168018 -0.000000  0.077093 -0.297218
  2H   1pz       -0.000000  0.669032  0.000000 -0.735686 -0.000000 -0.000000
  2H   1px        0.015488 -0.000000  0.459182  0.000000  0.466065  0.642461
  2H   1py        0.326049 -0.000000  0.428644 -0.000000  0.650555 -0.539234
                     18        19        20        21        22        23   
                   2.53114   3.29671   3.35114   3.52313   3.86285   4.19681
                   0.00000   0.00000   0.00000   0.00000   0.00000   0.00000
                  --------  --------  --------  --------  --------  --------
  0O   1s         0.148660  0.000000 -0.000000 -0.000237 -0.067654  0.000000
  0O   2s         0.674012  0.000000 -0.000000  0.086116 -0.065075  0.000002
  0O   3s         0.680114  0.000000 -0.000000 -0.476297 -1.791930  0.000005
  0O   1pz       -0.000000  0.023427 -0.000000  0.000000 -0.000000  0.000000
  0O   1px       -0.012973  0.000000 -0.000000  0.000084  0.007546  0.420932
  0O   1py       -0.587372 -0.000000  0.000000  0.003780  0.341256 -0.009310
  0O   2pz        0.000000 -0.274666  0.000003 -0.000000 -0.000000  0.000000
  0O   2px       -0.004674 -0.000000 -0.000000  0.011029  0.018878  1.053154
  0O   2py       -0.211464 -0.000000  0.000000  0.498686  0.853597 -0.023292
  0O   1dz2       0.271882 -0.000000  0.000000  0.381857  1.053851 -0.000002
  0O   1dxz       0.000000  0.022630  1.045427 -0.000000 -0.000000  0.000000
  0O   1dyz      -0.000000  1.022918 -0.023128  0.000000  0.000000 -0.000000
  0O   1dx2y2    -0.054923 -0.000000  0.000000  0.997244 -0.451333 -0.058221
  0O   1dxy       0.002434  0.000000  0.000000 -0.044129  0.019970 -1.315719
  1H   1s        -0.392167 -0.000000  0.000000  0.273939  1.054360  0.962307
  1H   2s        -0.191212 -0.000000 -0.000000  0.051107  0.217224  0.246107
  1H   1pz       -0.000000  0.383355  0.361520 -0.000000  0.000000  0.000000
  1H   1px       -0.720629 -0.000000  0.000000  0.350241  0.606433  0.600379
  1H   1py       -0.471411 -0.000000 -0.000000 -0.311453  0.456175  0.474606
  2H   1s        -0.392176 -0.000000  0.000000  0.273938  1.054360 -0.962314
  2H   2s        -0.191224 -0.000000  0.000000  0.051107  0.217224 -0.246108
  2H   1pz       -0.000000  0.383349 -0.361527  0.000000  0.000000 -0.000000
  2H   1px        0.699113  0.000000 -0.000000 -0.363668 -0.585673  0.578814
  2H   1py       -0.502829 -0.000000 -0.000000 -0.295667  0.482537 -0.500685
             **** ENERGY FILE WAS UPDATED (D:\hty\creat\code\github\orcacal\Test\ORCA_cal\ORCA_structure\H2O_2\input.en.tmp) ****
Finished Guess after   0.1 sec
Maximum memory used throughout the entire GUESS-calculation: 3.4 MB


           ************************************************************
           *        Program running with 20 parallel MPI-processes    *
           *              working on a common directory               *
           ************************************************************

-------------------------------------------------------------------------------------------
                                      ORCA LEAN-SCF
                              memory conserving SCF solver
-------------------------------------------------------------------------------------------

----------------------------------------D-I-I-S--------------------------------------------
Iteration    Energy (Eh)           Delta-E    RMSDP     MaxDP     DIISErr   Damp  Time(sec)
-------------------------------------------------------------------------------------------
               ***  Starting incremental Fock matrix formation  ***
                              *** Initializing SOSCF ***
---------------------------------------S-O-S-C-F--------------------------------------
Iteration    Energy (Eh)           Delta-E    RMSDP     MaxDP     MaxGrad    Time(sec)
--------------------------------------------------------------------------------------
    1    -75.9572134653354851     0.00e+00  1.60e-10  8.04e-10  2.51e-10     0.1

                         ----------------------------
                         !        ITERATION     0   !
                         ----------------------------
   Total Energy        :     -75.957213465335 Eh
   Energy Change       :      75.957213465335 Eh
   MAX-DP              :       0.000000000804
   RMS-DP              :       0.000000000160
   Orbital gradient    :       0.000000000251
   Orbital Rotation    :       0.000000000251
   alpha HOMO          :      -0.4957 Eh
   alpha LUMO          :       0.1710 Eh

               *** Restarting incremental Fock matrix formation ***
    2    -75.9572134653355135    -2.84e-14  0.00e+00  0.00e+00  5.36e-10     0.0
                  *** Gradient check signals convergence ***

                         ----------------------------
                         !        ITERATION     1   !
                         ----------------------------
   Total Energy        :     -75.957213465336 Eh
   Energy Change       :       0.000000000000 Eh
   MAX-DP              :       0.000000000000
   RMS-DP              :       0.000000000000
   Orbital gradient    :       0.000000000536
   Orbital Rotation    :       0.000000000000
   alpha HOMO          :      -0.4957 Eh
   alpha LUMO          :       0.1710 Eh


               *****************************************************
               *                     SUCCESS                       *
               *           SCF CONVERGED AFTER   2 CYCLES          *
               *****************************************************

             **** ENERGY FILE WAS UPDATED (D:\hty\creat\code\github\orcacal\Test\ORCA_cal\ORCA_structure\H2O_2\input.en.tmp) ****

----------------
TOTAL SCF ENERGY
----------------

Total Energy       :        -75.95721346533551 Eh           -2066.90086 eV

Components:
Nuclear Repulsion  :          8.88806832164036 Eh             241.85663 eV
Electronic Energy  :        -84.84528178697587 Eh           -2308.75749 eV
One Electron Energy:       -122.49541342635999 Eh           -3333.26966 eV
Two Electron Energy:         37.65013163938411 Eh            1024.51217 eV

Virial components:
Potential Energy   :       -151.61926689631531 Eh           -4125.77000 eV
Kinetic Energy     :         75.66205343097978 Eh            2058.86914 eV
Virial Ratio       :          2.00390103124316

---------------
SCF CONVERGENCE
---------------

  Last Energy change         ...    2.8422e-14  Tolerance :   1.0000e-06
  Last MAX-Density change    ...    0.0000e+00  Tolerance :   1.0000e-05
  Last RMS-Density change    ...    0.0000e+00  Tolerance :   1.0000e-06
  Last DIIS Error            ...    1.1157e-09  Tolerance :   1.0000e-06
  Last Orbital Gradient      ...    5.3559e-10  Tolerance :   5.0000e-05
  Last Orbital Rotation      ...    0.0000e+00  Tolerance :   5.0000e-05


----------------
ORBITAL ENERGIES
----------------

  NO   OCC          E(Eh)            E(eV) 
   0   2.0000     -20.550976      -559.2205 
   1   2.0000      -1.302507       -35.4430 
   2   2.0000      -0.686254       -18.6739 
   3   2.0000      -0.562114       -15.2959 
   4   2.0000      -0.495725       -13.4894 
   5   0.0000       0.170960         4.6521 
   6   0.0000       0.250074         6.8049 
   7   0.0000       0.771404        20.9910 
   8   0.0000       0.836180        22.7536 
   9   0.0000       1.186158        32.2770 
  10   0.0000       1.201586        32.6968 
  11   0.0000       1.272026        34.6136 
  12   0.0000       1.341095        36.4930 
  13   0.0000       1.590406        43.2771 
  14   0.0000       1.671713        45.4896 
  15   0.0000       1.802813        49.0570 
*Only the first 10 virtual orbitals were printed.
------------------
MOLECULAR ORBITALS (RHF, ROHF)
------------------
                      0         1         2         3         4         5   
                 -20.55098  -1.30251  -0.68625  -0.56211  -0.49573   0.17096
                   2.00000   2.00000   2.00000   2.00000   2.00000   0.00000
                  --------  --------  --------  --------  --------  --------
  0O   1s        -0.990418 -0.279700  0.000000  0.094325 -0.000000 -0.087410
  0O   2s         0.032796 -0.556243  0.000000  0.195737 -0.000000 -0.090392
  0O   3s        -0.010693 -0.308539  0.000001  0.320548 -0.000000 -1.064190
  0O   1pz        0.000000  0.000000 -0.000000  0.000000  0.633647 -0.000000
  0O   1px       -0.000056  0.001737 -0.486975  0.012035  0.000000  0.004403
  0O   1py       -0.002549  0.078566  0.010770  0.544213  0.000000  0.199069
  0O   2pz        0.000000 -0.000000 -0.000000 -0.000000  0.498332 -0.000000
  0O   2px        0.000009 -0.000007 -0.235848  0.008067 -0.000000  0.008399
  0O   2py        0.000402 -0.000328  0.005216  0.364784  0.000000  0.379745
  0O   1dz2      -0.000660  0.003929  0.000000  0.012133 -0.000000  0.011146
  0O   1dxz       0.000000 -0.000000  0.000000  0.000000 -0.000397 -0.000000
  0O   1dyz      -0.000000  0.000000  0.000000  0.000000 -0.017959  0.000000
  0O   1dx2y2     0.000290 -0.000419  0.001111  0.013288 -0.000000  0.002757
  0O   1dxy      -0.000013  0.000019  0.025099 -0.000588  0.000000 -0.000122
  1H   1s        -0.001316 -0.181742  0.320361 -0.203532  0.000000  0.073515
  1H   2s         0.001743 -0.006659  0.090836 -0.059203  0.000000  0.881028
  1H   1pz        0.000000  0.000000  0.000000 -0.000000  0.027727 -0.000000
  1H   1px       -0.001761 -0.030902  0.022573 -0.030037  0.000000  0.014090
  1H   1py       -0.001332 -0.015806  0.029441  0.006669  0.000000  0.010967
  2H   1s        -0.001316 -0.181743 -0.320361 -0.203531  0.000000  0.073515
  2H   2s         0.001743 -0.006659 -0.090836 -0.059202  0.000000  0.881026
  2H   1pz        0.000000  0.000000  0.000000  0.000000  0.027727  0.000000
  2H   1px        0.001700  0.030173  0.021249  0.030302 -0.000000 -0.013591
  2H   1py       -0.001409 -0.017157 -0.030410  0.005334  0.000000  0.011579
                      6         7         8         9        10        11   
                   0.25007   0.77140   0.83618   1.18616   1.20159   1.27203
                   0.00000   0.00000   0.00000   0.00000   0.00000   0.00000
                  --------  --------  --------  --------  --------  --------
  0O   1s         0.000000 -0.000001  0.112390  0.134222  0.000000 -0.000001
  0O   2s         0.000000 -0.000002  0.410256  0.590556  0.000000 -0.000003
  0O   3s         0.000002  0.000003 -0.410740 -0.123615 -0.000000  0.000006
  0O   1pz       -0.000000 -0.000000  0.000000 -0.000000  0.967055  0.000000
  0O   1px        0.292678  0.279084 -0.007198  0.017682  0.000000 -0.779992
  0O   1py       -0.006473 -0.006170 -0.325573  0.799607  0.000000  0.017248
  0O   2pz       -0.000000 -0.000000 -0.000000  0.000000 -1.015893 -0.000000
  0O   2px        0.657460  0.456908 -0.001513 -0.024988 -0.000000  1.697075
  0O   2py       -0.014540 -0.010104 -0.068571 -1.130049 -0.000000 -0.037529
  0O   1dz2      -0.000000 -0.000000  0.085213  0.001731 -0.000000 -0.000000
  0O   1dxz       0.000000 -0.000000 -0.000000  0.000000 -0.000049  0.000000
  0O   1dyz       0.000000  0.000000 -0.000000  0.000000 -0.002220 -0.000000
  0O   1dx2y2    -0.000729  0.004611 -0.050568 -0.009806  0.000000 -0.001469
  0O   1dxy      -0.016481  0.104189  0.002238  0.000434  0.000000 -0.033188
  1H   1s         0.034145  0.963923 -0.848829 -0.332029 -0.000000  0.330051
  1H   2s         1.370192 -0.714108  0.590113 -0.018103 -0.000000  0.748244
  1H   1pz        0.000000  0.000000 -0.000000 -0.000000 -0.023575 -0.000000
  1H   1px        0.013384 -0.051013  0.222701 -0.063104 -0.000000  0.270486
  1H   1py        0.008958 -0.115925  0.043211 -0.151138 -0.000000  0.146358
  2H   1s        -0.034145 -0.963913 -0.848841 -0.332030  0.000000 -0.330052
  2H   2s        -1.370195  0.714100  0.590120 -0.018106  0.000000 -0.748247
  2H   1pz       -0.000000  0.000000 -0.000000  0.000000 -0.023575  0.000000
  2H   1px        0.012975 -0.045836 -0.220574  0.056361 -0.000000  0.263752
  2H   1py       -0.009541  0.118067  0.053015 -0.153780  0.000000 -0.158173
                     12        13        14        15        16        17   
                   1.34109   1.59041   1.67171   1.80281   2.02360   2.48303
                   0.00000   0.00000   0.00000   0.00000   0.00000   0.00000
                  --------  --------  --------  --------  --------  --------
  0O   1s         0.246991 -0.000000 -0.086541 -0.000000 -0.000000  0.000003
  0O   2s         1.551230 -0.000000 -0.705160 -0.000000 -0.000000  0.000013
  0O   3s        -2.714654  0.000000  1.611960  0.000000 -0.000000  0.000015
  0O   1pz       -0.000000 -0.000001 -0.000000 -0.019758  0.000000 -0.000000
  0O   1px       -0.002376  0.000000  0.002860 -0.000000  0.048966 -0.751958
  0O   1py       -0.107360 -0.000000  0.129336  0.000000 -0.001083  0.016617
  0O   2pz        0.000000  0.000001 -0.000000  0.572168 -0.000000  0.000000
  0O   2px        0.013666 -0.000000 -0.025745  0.000000 -0.807533 -0.113994
  0O   2py        0.617849 -0.000000 -1.164165 -0.000000  0.017858  0.002516
  0O   1dz2      -0.018733  0.000000  0.113054  0.000000  0.000000  0.000006
  0O   1dxz       0.000000  0.168323 -0.000000  0.004412 -0.000000  0.000000
  0O   1dyz      -0.000000 -0.003722 -0.000000  0.199522  0.000000  0.000000
  0O   1dx2y2     0.061342  0.000000  0.157461  0.000000 -0.000975 -0.006982
  0O   1dxy      -0.002714 -0.000000 -0.006968  0.000000 -0.022027 -0.157760
  1H   1s         0.510628 -0.000000 -0.710316 -0.000000 -0.340942 -0.189848
  1H   2s         0.481947 -0.000000 -0.168018 -0.000000 -0.077093 -0.297227
  1H   1pz       -0.000000 -0.669033  0.000000 -0.735686  0.000000 -0.000000
  1H   1px       -0.001059 -0.000000 -0.439784 -0.000000  0.436850 -0.665701
  1H   1py        0.326416  0.000000  0.448524  0.000000 -0.670522 -0.510324
  2H   1s         0.510627 -0.000000 -0.710317 -0.000000  0.340942  0.189832
  2H   2s         0.481946 -0.000000 -0.168018 -0.000000  0.077093  0.297218
  2H   1pz        0.000000  0.669032  0.000000 -0.735686  0.000000 -0.000000
  2H   1px        0.015488  0.000000  0.459182  0.000000  0.466065 -0.642461
  2H   1py        0.326049  0.000000  0.428644  0.000000  0.650555  0.539234
                     18        19        20        21        22        23   
                   2.53114   3.29671   3.35114   3.52313   3.86285   4.19681
                   0.00000   0.00000   0.00000   0.00000   0.00000   0.00000
                  --------  --------  --------  --------  --------  --------
  0O   1s        -0.148660 -0.000000  0.000000  0.000237  0.067654  0.000000
  0O   2s        -0.674012 -0.000000  0.000000 -0.086116  0.065075  0.000002
  0O   3s        -0.680114  0.000000  0.000000  0.476297  1.791930  0.000005
  0O   1pz        0.000000  0.023427 -0.000000 -0.000000 -0.000000  0.000000
  0O   1px        0.012973  0.000000  0.000000 -0.000084 -0.007546  0.420932
  0O   1py        0.587372 -0.000000 -0.000000 -0.003780 -0.341256 -0.009310
  0O   2pz        0.000000 -0.274666  0.000003 -0.000000  0.000000  0.000000
  0O   2px        0.004674  0.000000 -0.000000 -0.011029 -0.018878  1.053154
  0O   2py        0.211464 -0.000000 -0.000000 -0.498686 -0.853597 -0.023292
  0O   1dz2      -0.271882 -0.000000  0.000000 -0.381857 -1.053851 -0.000002
  0O   1dxz       0.000000  0.022630  1.045427 -0.000000  0.000000  0.000000
  0O   1dyz      -0.000000  1.022918 -0.023128  0.000000 -0.000000 -0.000000
  0O   1dx2y2     0.054923  0.000000 -0.000000 -0.997244  0.451333 -0.058221
  0O   1dxy      -0.002434 -0.000000  0.000000  0.044129 -0.019970 -1.315719
  1H   1s         0.392167 -0.000000 -0.000000 -0.273939 -1.054360  0.962307
  1H   2s         0.191212  0.000000 -0.000000 -0.051107 -0.217224  0.246107
  1H   1pz       -0.000000  0.383355  0.361520 -0.000000 -0.000000  0.000000
  1H   1px        0.720629 -0.000000 -0.000000 -0.350241 -0.606433  0.600379
  1H   1py        0.471411 -0.000000 -0.000000  0.311453 -0.456175  0.474606
  2H   1s         0.392176 -0.000000  0.000000 -0.273938 -1.054360 -0.962314
  2H   2s         0.191224 -0.000000  0.000000 -0.051107 -0.217224 -0.246108
  2H   1pz        0.000000  0.383349 -0.361527  0.000000 -0.000000 -0.000000
  2H   1px       -0.699113  0.000000  0.000000  0.363668  0.585673  0.578814
  2H   1py        0.502829 -0.000000  0.000000  0.295667 -0.482537 -0.500685


-------
DENSITY
-------
                  0          1          2          3          4          5    
      0       2.136112   0.283124   0.254249  -0.000000   0.001410   0.063766
      1       0.283124   0.697589   0.468030  -0.000000   0.002775   0.125474
      2       0.254249   0.468030   0.396123  -0.000000   0.006644   0.300466
      3      -0.000000  -0.000000  -0.000000   0.803018   0.000000   0.000000
      4       0.001410   0.002775   0.006644   0.000000   0.474585   0.002884
      5       0.063766   0.125474   0.300466   0.000000   0.002884   0.604926
      6      -0.000000  -0.000000  -0.000000   0.631534   0.000000   0.000000
      7       0.001508   0.003167   0.005176  -0.000000   0.229898   0.003699
      8       0.068202   0.143194   0.234055   0.000000   0.003699   0.397099
      9       0.001398   0.000335   0.005368  -0.000000   0.000306   0.013827
     10      -0.000000   0.000000   0.000000  -0.000503  -0.000000   0.000000
     11       0.000000   0.000000   0.000000  -0.022760  -0.000000   0.000000
     12       0.002168   0.005687   0.008771  -0.000000  -0.000763   0.014419
     13      -0.000096  -0.000252  -0.000388  -0.000000  -0.024459  -0.000096
     14       0.065876   0.122422  -0.018306   0.000000  -0.317546  -0.243180
     15      -0.010896  -0.015654  -0.033883   0.000000  -0.089918  -0.063536
     16      -0.000000  -0.000000  -0.000000   0.035138  -0.000000  -0.000000
     17       0.015108   0.022504  -0.000150   0.000000  -0.022815  -0.037053
     18       0.012739   0.020108   0.014057   0.000000  -0.028568   0.005415
     19       0.065877   0.122423  -0.018306   0.000000   0.306485  -0.256980
     20      -0.010896  -0.015654  -0.033883   0.000000   0.087022  -0.067449
     21      -0.000000  -0.000000  -0.000000   0.035138   0.000000   0.000000
     22      -0.014530  -0.021593   0.000771  -0.000000  -0.019861   0.038172
     23       0.013394   0.021083   0.014037   0.000000   0.029687   0.002462
                  6          7          8          9         10         11    
      0      -0.000000   0.001508   0.068202   0.001398  -0.000000   0.000000
      1      -0.000000   0.003167   0.143194   0.000335   0.000000   0.000000
      2      -0.000000   0.005176   0.234055   0.005368   0.000000   0.000000
      3       0.631534  -0.000000   0.000000  -0.000000  -0.000503  -0.022760
      4       0.000000   0.229898   0.003699   0.000306  -0.000000  -0.000000
      5       0.000000   0.003699   0.397099   0.013827   0.000000   0.000000
      6       0.496671  -0.000000   0.000000  -0.000000  -0.000396  -0.017899
      7      -0.000000   0.111379   0.003425   0.000196  -0.000000  -0.000000
      8       0.000000   0.003425   0.266189   0.008849   0.000000   0.000000
      9      -0.000000   0.000196   0.008849   0.000326   0.000000   0.000000
     10      -0.000396  -0.000000   0.000000   0.000000   0.000000   0.000014
     11      -0.017899  -0.000000   0.000000   0.000000   0.000014   0.000645
     12      -0.000000  -0.000309   0.009707   0.000319   0.000000   0.000000
     13      -0.000000  -0.011849  -0.000167  -0.000014   0.000000   0.000000
     14       0.000000  -0.154394  -0.145030  -0.006365   0.000000   0.000000
     15       0.000000  -0.043802  -0.042239  -0.001491   0.000000  -0.000000
     16       0.027634  -0.000000   0.000000  -0.000000  -0.000022  -0.000996
     17       0.000000  -0.011132  -0.021659  -0.000969   0.000000  -0.000000
     18       0.000000  -0.013779   0.005182   0.000039   0.000000   0.000000
     19       0.000000   0.147832  -0.151714  -0.006365  -0.000000  -0.000000
     20       0.000000   0.041892  -0.044134  -0.001491  -0.000000  -0.000000
     21       0.027635  -0.000000   0.000000   0.000000  -0.000022  -0.000996
     22      -0.000000  -0.009535   0.022311   0.000970   0.000000   0.000000
     23       0.000000   0.014430   0.003585  -0.000004  -0.000000  -0.000000
                 12         13         14         15         16         17    
      0       0.002168  -0.000096   0.065876  -0.010896  -0.000000   0.015108
      1       0.005687  -0.000252   0.122422  -0.015654  -0.000000   0.022504
      2       0.008771  -0.000388  -0.018306  -0.033883  -0.000000  -0.000150
      3      -0.000000  -0.000000   0.000000   0.000000   0.035138   0.000000
      4      -0.000763  -0.024459  -0.317546  -0.089918  -0.000000  -0.022815
      5       0.014419  -0.000096  -0.243180  -0.063536  -0.000000  -0.037053
      6      -0.000000  -0.000000   0.000000   0.000000   0.027634   0.000000
      7      -0.000309  -0.011849  -0.154394  -0.043802  -0.000000  -0.011132
      8       0.009707  -0.000167  -0.145030  -0.042239   0.000000  -0.021659
      9       0.000319  -0.000014  -0.006365  -0.001491  -0.000000  -0.000969
     10       0.000000   0.000000   0.000000   0.000000  -0.000022   0.000000
     11       0.000000   0.000000   0.000000  -0.000000  -0.000996  -0.000000
     12       0.000356   0.000040  -0.004546  -0.001365  -0.000000  -0.000723
     13       0.000040   0.001261   0.016314   0.004629   0.000000   0.001167
     14      -0.004546   0.016314   0.354177   0.084716   0.000000   0.037927
     15      -0.001365   0.004629   0.084716   0.023607   0.000000   0.008063
     16      -0.000000   0.000000   0.000000   0.000000   0.001538   0.000000
     17      -0.000723   0.001167   0.037927   0.008063   0.000000   0.004740
     18       0.000255   0.001469   0.021898   0.004765   0.000000   0.001910
     19      -0.005969  -0.015849  -0.056348  -0.031686  -0.000000   0.009001
     20      -0.001769  -0.004490  -0.031686  -0.009398   0.000000  -0.000139
     21      -0.000000   0.000000  -0.000000   0.000000   0.001538  -0.000000
     22       0.000828   0.001032  -0.009692  -0.000123  -0.000000  -0.002732
     23       0.000088  -0.001533  -0.015416  -0.005933  -0.000000  -0.000628
                 18         19         20         21         22         23    
      0       0.012739   0.065877  -0.010896  -0.000000  -0.014530   0.013394
      1       0.020108   0.122423  -0.015654  -0.000000  -0.021593   0.021083
      2       0.014057  -0.018306  -0.033883  -0.000000   0.000771   0.014037
      3       0.000000   0.000000   0.000000   0.035138  -0.000000   0.000000
      4      -0.028568   0.306485   0.087022   0.000000  -0.019861   0.029687
      5       0.005415  -0.256980  -0.067449   0.000000   0.038172   0.002462
      6       0.000000   0.000000   0.000000   0.027635  -0.000000   0.000000
      7      -0.013779   0.147832   0.041892  -0.000000  -0.009535   0.014430
      8       0.005182  -0.151714  -0.044134   0.000000   0.022311   0.003585
      9       0.000039  -0.006365  -0.001491   0.000000   0.000970  -0.000004
     10       0.000000  -0.000000  -0.000000  -0.000022   0.000000  -0.000000
     11       0.000000  -0.000000  -0.000000  -0.000996   0.000000  -0.000000
     12       0.000255  -0.005969  -0.001769  -0.000000   0.000828   0.000088
     13       0.001469  -0.015849  -0.004490   0.000000   0.001032  -0.001533
     14       0.021898  -0.056348  -0.031686  -0.000000  -0.009692  -0.015416
     15       0.004765  -0.031686  -0.009398   0.000000  -0.000123  -0.005933
     16       0.000000  -0.000000   0.000000   0.001538  -0.000000  -0.000000
     17       0.001910   0.009001  -0.000139  -0.000000  -0.002732  -0.000628
     18       0.002326  -0.015829  -0.005932   0.000000   0.000697  -0.001173
     19      -0.015829   0.354177   0.084716  -0.000000  -0.036922   0.023553
     20      -0.005932   0.084716   0.023607   0.000000  -0.007844   0.005117
     21       0.000000  -0.000000   0.000000   0.001538   0.000000   0.000000
     22       0.000697  -0.036922  -0.007844   0.000000   0.004566  -0.002009
     23      -0.001173   0.023553   0.005117   0.000000  -0.002009   0.002499



                    ********************************
                    * MULLIKEN POPULATION ANALYSIS *
                    ********************************

-----------------------
MULLIKEN ATOMIC CHARGES
-----------------------
   0 O :   -0.382938
   1 H :    0.191469
   2 H :    0.191469
Sum of atomic charges:   -0.0000000

------------------------
MULLIKEN ORBITAL CHARGES
------------------------
The uncorrected charge=density diagonal is given in parenthesis)
   0:   0O   1s           1.991033 (  2.136112)
   1:   0O   2s           1.057324 (  0.697589)
   2:   0O   3s           0.666670 (  0.396123)
   3:   0O   1pz          1.131705 (  0.803018)
   4:   0O   1px          0.759669 (  0.474585)
   5:   0O   1py          0.914257 (  0.604926)
   6:   0O   2pz          0.832998 (  0.496671)
   7:   0O   2px          0.407404 (  0.111379)
   8:   0O   2py          0.610833 (  0.266189)
   9:   0O   1dz2         0.001932 (  0.000326)
  10:   0O   1dxz         0.000000 (  0.000000)
  11:   0O   1dyz         0.000999 (  0.000645)
  12:   0O   1dx2y2       0.000146 (  0.000356)
  13:   0O   1dxy         0.007967 (  0.001261)
  14:   1H   1s           0.663876 (  0.354177)
  15:   1H   2s           0.074387 (  0.023607)
  16:   1H   1pz          0.017149 (  0.001538)
  17:   1H   1px          0.032097 (  0.004740)
  18:   1H   1py          0.021023 (  0.002326)
  19:   2H   1s           0.663876 (  0.354177)
  20:   2H   2s           0.074387 (  0.023607)
  21:   2H   1pz          0.017149 (  0.001538)
  22:   2H   1px          0.031030 (  0.004566)
  23:   2H   1py          0.022089 (  0.002499)
Sum of orbital charges :   10.0000000

--------------------------------
MULLIKEN REDUCED ORBITAL CHARGES
--------------------------------
  0 O s       :     3.715027  s :     3.715027
      pz      :     1.964703  p :     4.656867
      px      :     1.167074
      py      :     1.525090
      dz2     :     0.001932  d :     0.011044
      dxz     :     0.000000
      dyz     :     0.000999
      dx2y2   :     0.000146
      dxy     :     0.007967

  1 H s       :     0.738263  s :     0.738263
      pz      :     0.017149  p :     0.070268
      px      :     0.032097
      py      :     0.021023

  2 H s       :     0.738263  s :     0.738263
      pz      :     0.017149  p :     0.070268
      px      :     0.031030
      py      :     0.022089


------------------------
MULLIKEN OVERLAP CHARGES
------------------------
B(  0-O ,  1-H ) :   0.6664 B(  0-O ,  2-H ) :   0.6664 B(  1-H ,  2-H ) :  -0.0542 


-----------------------------------
MULLIKEN ORBITAL POPULATIONS PER MO
-----------------------------------
THRESHOLD FOR PRINTING IS 0.1%%
                      0         1         2         3         4         5   
                 -20.55098  -1.30251  -0.68625  -0.56211  -0.49573   0.17096
                   2.00000   2.00000   2.00000   2.00000   2.00000   0.00000
                  --------  --------  --------  --------  --------  --------
  0O   1s             99.0       0.5       0.0       0.0      -0.0       0.0
  0O   2s              1.2      47.2       0.0       4.5       0.0       1.5
  0O   3s             -0.2      28.2       0.0       5.3      -0.0     -16.6
  0O   1pz             0.0       0.0       0.0       0.0      56.6       0.0
  0O   1px             0.0       0.0      38.0       0.0      -0.0       0.0
  0O   1py             0.0       1.2       0.0      44.5       0.0       4.8
  0O   2pz             0.0      -0.0       0.0       0.0      41.6       0.0
  0O   2px            -0.0      -0.0      20.4       0.0       0.0      -0.0
  0O   2py            -0.0      -0.0       0.0      30.5      -0.0      -0.2
  0O   1dxy           -0.0       0.0       0.4       0.0       0.0       0.0
  1H   1s             -0.0       9.7      17.4       6.1       0.0       1.6
  1H   2s              0.0       0.4       2.5       0.8       0.0      54.2
  1H   1pz             0.0       0.0      -0.0       0.0       0.9       0.0
  1H   1px            -0.0       1.0       0.1       0.5      -0.0      -0.4
  1H   1py            -0.0       0.3       0.6       0.1      -0.0      -0.2
  2H   1s             -0.0       9.7      17.4       6.1      -0.0       1.6
  2H   2s              0.0       0.4       2.5       0.8       0.0      54.2
  2H   1pz             0.0       0.0      -0.0       0.0       0.9      -0.0
  2H   1px            -0.0       1.0       0.1       0.5      -0.0      -0.4
  2H   1py            -0.0       0.4       0.7       0.1      -0.0      -0.2

                      6         7         8         9        10        11   
                   0.25007   0.77140   0.83618   1.18616   1.20159   1.27203
                   0.00000   0.00000   0.00000   0.00000   0.00000   0.00000
                  --------  --------  --------  --------  --------  --------
  0O   2s              0.0       0.0       6.0       6.7       0.0       0.0
  0O   3s             -0.0       0.0       0.3       1.5       0.0       0.0
  0O   1pz             0.0       0.0       0.0       0.0      43.4       0.0
  0O   1px            10.8       8.4       0.0       0.0       0.0      28.8
  0O   1py             0.0       0.0       9.2      30.9       0.0       0.0
  0O   2pz             0.0       0.0       0.0       0.0      55.5       0.0
  0O   2px            -6.0       7.2      -0.0       0.0       0.0      77.9
  0O   2py            -0.0       0.0      -0.2      55.2       0.0       0.0
  0O   1dz2            0.0       0.0       1.8       0.0       0.0      -0.0
  0O   1dx2y2         -0.0       0.0       0.8       0.1       0.0      -0.0
  0O   1dxy           -0.1       4.1       0.0       0.0      -0.0      -0.8
  1H   1s              0.6      31.2      29.6      -0.6      -0.0      -3.7
  1H   2s             47.6       5.2       3.0       0.0       0.0      -5.1
  1H   1pz            -0.0       0.0       0.0      -0.0       0.5       0.0
  1H   1px            -0.3       0.3       8.3      -0.6       0.0       6.8
  1H   1py            -0.2       3.4       0.2       3.9      -0.0      -0.9
  2H   1s              0.6      31.2      29.6      -0.6      -0.0      -3.7
  2H   2s             47.6       5.2       3.0       0.0      -0.0      -5.1
  2H   1pz             0.0      -0.0       0.0       0.0       0.5       0.0
  2H   1px            -0.3       0.3       8.1      -0.6       0.0       6.7
  2H   1py            -0.2       3.5       0.3       3.9      -0.0      -0.8

                     12        13        14        15        16        17   
                   1.34109   1.59041   1.67171   1.80281   2.02360   2.48303
                   0.00000   0.00000   0.00000   0.00000   0.00000   0.00000
                  --------  --------  --------  --------  --------  --------
  0O   1s              0.2       0.0       0.0       0.0       0.0       0.0
  0O   2s             25.6       0.0       2.8       0.0       0.0       0.0
  0O   3s             67.4       0.0      13.9       0.0      -0.0      -0.0
  0O   1px             0.0       0.0       0.0       0.0      -0.0      12.6
  0O   1py             0.5       0.0       0.0       0.0      -0.0       0.0
  0O   2pz             0.0       0.0       0.0       2.9       0.0       0.0
  0O   2px             0.0       0.0       0.0       0.0       4.1      -1.0
  0O   2py             3.3       0.0      14.3       0.0       0.0      -0.0
  0O   1dz2            0.3       0.0       3.3       0.0      -0.0       0.0
  0O   1dxz            0.0       8.0       0.0       0.0       0.0       0.0
  0O   1dyz            0.0       0.0       0.0       9.2      -0.0       0.0
  0O   1dx2y2          1.7       0.0       6.8       0.0       0.0       0.0
  0O   1dxy            0.0       0.0       0.0       0.0       0.1       8.8
  1H   1s             -2.4      -0.0       0.7      -0.0       0.4       0.4
  1H   2s             -6.9      -0.0      -1.2      -0.0      -0.1       0.0
  1H   1pz             0.0      46.0       0.0      44.0       0.0       0.0
  1H   1px             0.0       0.0      10.0       0.0      16.3      24.9
  1H   1py             9.7       0.0      20.0       0.0      31.4      14.5
  2H   1s             -2.4       0.0       0.7      -0.0       0.4       0.4
  2H   2s             -6.9      -0.0      -1.2      -0.0      -0.1       0.0
  2H   1pz             0.0      46.0      -0.0      44.0       0.0       0.0
  2H   1px             0.3       0.0      11.3       0.0      18.3      23.2
  2H   1py             9.4       0.0      18.6       0.0      29.3      16.2

                     18        19        20        21        22        23   
                   2.53114   3.29671   3.35114   3.52313   3.86285   4.19681
                   0.00000   0.00000   0.00000   0.00000   0.00000   0.00000
                  --------  --------  --------  --------  --------  --------
  0O   2s              4.4       0.0       0.0      -0.0       0.1       0.0
  0O   3s             -1.2       0.0      -0.0       0.3       1.1      -0.0
  0O   1px             0.0       0.0       0.0      -0.0       0.0       1.4
  0O   1py             7.3       0.0       0.0      -0.0       1.5       0.0
  0O   2px            -0.0       0.0       0.0      -0.0      -0.0      -2.6
  0O   2py            -1.5      -0.0      -0.0      -0.1      -1.3      -0.0
  0O   1dz2           15.2       0.0       0.0      11.4      67.9       0.0
  0O   1dxz            0.0       0.0      92.0       0.0       0.0       0.0
  0O   1dyz            0.0      90.7       0.0       0.0       0.0       0.0
  0O   1dx2y2          0.8       0.0       0.0      77.4      12.2       0.2
  0O   1dxy            0.0      -0.0       0.0       0.2       0.0      87.3
  1H   1s              1.2       0.0       0.0       0.1       3.9       3.8
  1H   2s              0.0       0.0       0.0      -0.0      -0.3      -0.1
  1H   1pz             0.0       4.7       4.0      -0.0       0.0      -0.0
  1H   1px            25.0      -0.0       0.0       2.7       3.5       1.9
  1H   1py            11.3      -0.0       0.0       2.6       2.1       1.3
  2H   1s              1.2       0.0      -0.0       0.1       3.9       3.8
  2H   2s              0.0       0.0       0.0      -0.0      -0.3      -0.1
  2H   1pz             0.0       4.7       4.0       0.0       0.0       0.0
  2H   1px            23.5      -0.0       0.0       3.0       3.3       1.7
  2H   1py            12.8       0.0      -0.0       2.3       2.4       1.4



                     *******************************
                     * LOEWDIN POPULATION ANALYSIS *
                     *******************************

----------------------
LOEWDIN ATOMIC CHARGES
----------------------
   0 O :   -0.192137
   1 H :    0.096069
   2 H :    0.096068

-----------------------
LOEWDIN ORBITAL CHARGES
-----------------------
   0:   0O   1s           1.973568
   1:   0O   2s           0.864776
   2:   0O   3s           0.622749
   3:   0O   1pz          1.094982
   4:   0O   1px          0.685826
   5:   0O   1py          0.870593
   6:   0O   2pz          0.808336
   7:   0O   2px          0.544211
   8:   0O   2py          0.707811
   9:   0O   1dz2         0.003898
  10:   0O   1dxz         0.000000
  11:   0O   1dyz         0.000310
  12:   0O   1dx2y2       0.000056
  13:   0O   1dxy         0.015020
  14:   1H   1s           0.558162
  15:   1H   2s           0.177294
  16:   1H   1pz          0.048186
  17:   1H   1px          0.064006
  18:   1H   1py          0.056283
  19:   2H   1s           0.558163
  20:   2H   2s           0.177294
  21:   2H   1pz          0.048186
  22:   2H   1px          0.061270
  23:   2H   1py          0.059019

-------------------------------
LOEWDIN REDUCED ORBITAL CHARGES
-------------------------------
  0 O s       :     3.461094  s :     3.461094
      pz      :     1.903318  p :     4.711760
      px      :     1.230038
      py      :     1.578404
      dz2     :     0.003898  d :     0.019284
      dxz     :     0.000000
      dyz     :     0.000310
      dx2y2   :     0.000056
      dxy     :     0.015020

  1 H s       :     0.735456  s :     0.735456
      pz      :     0.048186  p :     0.168475
      px      :     0.064006
      py      :     0.056283

  2 H s       :     0.735457  s :     0.735457
      pz      :     0.048186  p :     0.168475
      px      :     0.061270
      py      :     0.059019


---------------------------------
LOEWDIN BOND ORDERS (THRESH 0.050000)
---------------------------------
B(  0-O ,  1-H ) :   1.1312 B(  0-O ,  2-H ) :   1.1313 

----------------------------------
LOEWDIN ORBITAL POPULATIONS PER MO
----------------------------------
THRESHOLD FOR PRINTING IS 0.1%%
                      0         1         2         3         4         5   
                 -20.55098  -1.30251  -0.68625  -0.56211  -0.49573   0.17096
                   2.00000   2.00000   2.00000   2.00000   2.00000   0.00000
                  --------  --------  --------  --------  --------  --------
  0O   1s             95.8       2.6       0.0       0.2       0.0       0.2
  0O   2s              3.8      34.3       0.0       5.2       0.0       5.3
  0O   3s              0.2      26.5       0.0       4.4       0.0       2.3
  0O   1pz             0.0       0.0       0.0       0.0      54.7       0.0
  0O   1px             0.0       0.0      34.3       0.0       0.0       0.0
  0O   1py             0.0       0.7       0.0      42.8       0.0       4.4
  0O   2pz             0.0       0.0       0.0       0.0      40.4       0.0
  0O   2px             0.0       0.0      27.2       0.0       0.0       0.0
  0O   2py             0.0       0.3       0.0      35.1       0.0       0.7
  0O   1dz2            0.0       0.0       0.0       0.2       0.0       0.2
  0O   1dxy            0.0       0.0       0.8       0.0       0.0       0.0
  1H   1s              0.0       8.5      14.9       4.5       0.0       0.4
  1H   2s              0.0       5.6       2.8       0.5       0.0      37.8
  1H   1pz             0.0       0.0       0.0       0.0       2.4       0.0
  1H   1px             0.0       2.5       0.1       0.5       0.0       4.0
  1H   1py             0.0       1.1       1.0       0.6       0.0       1.2
  2H   1s              0.0       8.5      14.9       4.5       0.0       0.4
  2H   2s              0.0       5.6       2.8       0.5       0.0      37.8
  2H   1pz             0.0       0.0       0.0       0.0       2.4       0.0
  2H   1px             0.0       2.4       0.1       0.5       0.0       3.8
  2H   1py             0.0       1.3       1.1       0.6       0.0       1.4

                      6         7         8         9        10        11   
                   0.25007   0.77140   0.83618   1.18616   1.20159   1.27203
                   0.00000   0.00000   0.00000   0.00000   0.00000   0.00000
                  --------  --------  --------  --------  --------  --------
  0O   1s              0.0       0.0       0.2       0.2       0.0       0.0
  0O   2s              0.0       0.0       3.3       7.8       0.0       0.0
  0O   3s              0.0       0.0       1.1       2.5       0.0       0.0
  0O   1pz             0.0       0.0       0.0       0.0      45.1       0.0
  0O   1px            11.7       7.0       0.0       0.0       0.0      28.6
  0O   1py             0.0       0.0       8.0      32.4       0.0       0.0
  0O   2pz             0.0       0.0       0.0       0.0      50.9       0.0
  0O   2px             0.7       5.4       0.0       0.0       0.0      55.0
  0O   2py             0.0       0.0       0.0      46.3       0.0       0.0
  0O   1dz2            0.0       0.0       3.0       0.7       0.0       0.0
  0O   1dx2y2          0.0       0.0       1.2       0.2       0.0       0.0
  0O   1dxy            0.4       9.8       0.0       0.0       0.0       3.3
  1H   1s              1.0      25.8      26.1       0.5       0.0       0.0
  1H   2s             37.3       7.3       5.7       0.0       0.0       1.9
  1H   1pz             0.0       0.0       0.0       0.0       2.0       0.0
  1H   1px             2.7       0.5       9.5       0.3       0.0       4.5
  1H   1py             2.6       5.4       0.2       4.0       0.0       0.1
  2H   1s              1.0      25.8      26.1       0.5       0.0       0.0
  2H   2s             37.3       7.3       5.7       0.0       0.0       1.9
  2H   1pz             0.0       0.0       0.0       0.0       2.0       0.0
  2H   1px             2.5       0.4       9.4       0.4       0.0       4.5
  2H   1py             2.8       5.5       0.3       3.9       0.0       0.1

                     12        13        14        15        16        17   
                   1.34109   1.59041   1.67171   1.80281   2.02360   2.48303
                   0.00000   0.00000   0.00000   0.00000   0.00000   0.00000
                  --------  --------  --------  --------  --------  --------
  0O   1s              0.5       0.0       0.0       0.0       0.0       0.0
  0O   2s             26.0       0.0       3.9       0.0       0.0       0.0
  0O   3s             43.8       0.0       8.8       0.0       0.0       0.0
  0O   1pz             0.0       0.0       0.0       0.1       0.0       0.0
  0O   1px             0.0       0.0       0.0       0.0       0.0      16.1
  0O   1py             0.8       0.0       0.2       0.0       0.0       0.0
  0O   2pz             0.0       0.0       0.0       7.6       0.0       0.0
  0O   2px             0.0       0.0       0.0       0.0       7.5       0.5
  0O   2py             0.4       0.0      14.0       0.0       0.0       0.0
  0O   1dz2            2.9       0.0       7.5       0.0       0.0       0.0
  0O   1dxz            0.0      10.4       0.0       0.0       0.0       0.0
  0O   1dyz            0.0       0.0       0.0      11.7       0.0       0.0
  0O   1dx2y2          3.5       0.0       8.4       0.0       0.0       0.0
  0O   1dxy            0.0       0.0       0.0       0.0       0.7      17.7
  1H   1s              0.2       0.0       2.3       0.0       0.7       0.2
  1H   2s              0.0       0.0       0.2       0.0       0.0       0.6
  1H   1pz             0.0      44.8       0.0      40.3       0.0       0.0
  1H   1px             3.6       0.0       5.4       0.0      17.8      20.3
  1H   1py             7.2       0.0      20.6       0.0      27.4      11.8
  2H   1s              0.2       0.0       2.3       0.0       0.7       0.2
  2H   2s              0.0       0.0       0.2       0.0       0.0       0.6
  2H   1pz             0.0      44.8       0.0      40.3       0.0       0.0
  2H   1px             4.1       0.0       6.4       0.0      19.7      18.9
  2H   1py             6.8       0.0      19.6       0.0      25.5      13.1

                     18        19        20        21        22        23   
                   2.53114   3.29671   3.35114   3.52313   3.86285   4.19681
                   0.00000   0.00000   0.00000   0.00000   0.00000   0.00000
                  --------  --------  --------  --------  --------  --------
  0O   1s              0.2       0.0       0.0       0.0       0.0       0.0
  0O   2s              9.5       0.0       0.0       0.0       1.0       0.0
  0O   3s              1.6       0.0       0.0       0.4       8.3       0.0
  0O   1px             0.0       0.0       0.0       0.0       0.0       2.3
  0O   1py             8.9       0.0       0.0       0.0       1.7       0.0
  0O   2pz             0.0       1.0       0.0       0.0       0.0       0.0
  0O   2px             0.0       0.0       0.0       0.0       0.0       3.8
  0O   2py             0.1       0.0       0.0       1.6       1.4       0.0
  0O   1dz2           22.5       0.0       0.0       9.7      53.3       0.0
  0O   1dxz            0.0       0.0      89.5       0.0       0.0       0.0
  0O   1dyz            0.0      88.2       0.0       0.0       0.0       0.0
  0O   1dx2y2          1.5       0.0       0.0      74.6      10.3       0.1
  0O   1dxy            0.0       0.0       0.0       0.1       0.0      67.2
  1H   1s              0.7       0.0       0.0       0.3       6.4       7.5
  1H   2s              0.2       0.0       0.0       0.0       0.0       0.1
  1H   1pz             0.0       5.4       5.2       0.0       0.0       0.0
  1H   1px            18.5       0.0       0.0       2.7       2.8       4.0
  1H   1py             8.5       0.0       0.0       3.7       2.8       1.7
  2H   1s              0.7       0.0       0.0       0.3       6.4       7.5
  2H   2s              0.2       0.0       0.0       0.0       0.0       0.1
  2H   1pz             0.0       5.4       5.2       0.0       0.0       0.0
  2H   1px            17.4       0.0       0.0       3.0       2.5       3.8
  2H   1py             9.6       0.0       0.0       3.4       3.1       2.0


------------------------------------------
LOEWDIN REDUCED ORBITAL POPULATIONS PER MO
-------------------------------------------
THRESHOLD FOR PRINTING IS 0.1%%
                      0         1         2         3         4         5   
                 -20.55098  -1.30251  -0.68625  -0.56211  -0.49573   0.17096
                   2.00000   2.00000   2.00000   2.00000   2.00000   0.00000
                  --------  --------  --------  --------  --------  --------
 0 O  s              99.9      63.4       0.0       9.8       0.0       7.8
 0 O  pz              0.0       0.0       0.0       0.0      95.2       0.0
 0 O  px              0.0       0.0      61.5       0.0       0.0       0.0
 0 O  py              0.0       1.0       0.0      77.9       0.0       5.1
 0 O  dz2             0.0       0.0       0.0       0.2       0.0       0.2
 0 O  dxy             0.0       0.0       0.8       0.0       0.0       0.0
 1 H  s               0.0      14.1      17.7       4.9       0.0      38.2
 1 H  pz              0.0       0.0       0.0       0.0       2.4       0.0
 1 H  px              0.0       2.5       0.1       0.5       0.0       4.0
 1 H  py              0.0       1.1       1.0       0.6       0.0       1.2
 2 H  s               0.0      14.1      17.7       4.9       0.0      38.2
 2 H  pz              0.0       0.0       0.0       0.0       2.4       0.0
 2 H  px              0.0       2.4       0.1       0.5       0.0       3.8
 2 H  py              0.0       1.3       1.1       0.6       0.0       1.4

                      6         7         8         9        10        11   
                   0.25007   0.77140   0.83618   1.18616   1.20159   1.27203
                   0.00000   0.00000   0.00000   0.00000   0.00000   0.00000
                  --------  --------  --------  --------  --------  --------
 0 O  s               0.0       0.0       4.6      10.5       0.0       0.0
 0 O  pz              0.0       0.0       0.0       0.0      96.1       0.0
 0 O  px             12.4      12.4       0.0       0.0       0.0      83.6
 0 O  py              0.0       0.0       8.1      78.7       0.0       0.0
 0 O  dz2             0.0       0.0       3.0       0.7       0.0       0.0
 0 O  dx2y2           0.0       0.0       1.2       0.2       0.0       0.0
 0 O  dxy             0.4       9.8       0.0       0.0       0.0       3.3
 1 H  s              38.3      33.0      31.8       0.6       0.0       1.9
 1 H  pz              0.0       0.0       0.0       0.0       2.0       0.0
 1 H  px              2.7       0.5       9.5       0.3       0.0       4.5
 1 H  py              2.6       5.4       0.2       4.0       0.0       0.1
 2 H  s              38.3      33.0      31.8       0.6       0.0       1.9
 2 H  pz              0.0       0.0       0.0       0.0       2.0       0.0
 2 H  px              2.5       0.4       9.4       0.4       0.0       4.5
 2 H  py              2.8       5.5       0.3       3.9       0.0       0.1

                     12        13        14        15        16        17   
                   1.34109   1.59041   1.67171   1.80281   2.02360   2.48303
                   0.00000   0.00000   0.00000   0.00000   0.00000   0.00000
                  --------  --------  --------  --------  --------  --------
 0 O  s              70.3       0.0      12.8       0.0       0.0       0.0
 0 O  pz              0.0       0.0       0.0       7.7       0.0       0.0
 0 O  px              0.0       0.0       0.0       0.0       7.5      16.6
 0 O  py              1.2       0.0      14.2       0.0       0.0       0.0
 0 O  dz2             2.9       0.0       7.5       0.0       0.0       0.0
 0 O  dxz             0.0      10.4       0.0       0.0       0.0       0.0
 0 O  dyz             0.0       0.0       0.0      11.7       0.0       0.0
 0 O  dx2y2           3.5       0.0       8.4       0.0       0.0       0.0
 0 O  dxy             0.0       0.0       0.0       0.0       0.7      17.7
 1 H  s               0.2       0.0       2.5       0.0       0.7       0.8
 1 H  pz              0.0      44.8       0.0      40.3       0.0       0.0
 1 H  px              3.6       0.0       5.4       0.0      17.8      20.3
 1 H  py              7.2       0.0      20.6       0.0      27.4      11.8
 2 H  s               0.2       0.0       2.5       0.0       0.7       0.8
 2 H  pz              0.0      44.8       0.0      40.3       0.0       0.0
 2 H  px              4.1       0.0       6.4       0.0      19.7      18.9
 2 H  py              6.8       0.0      19.6       0.0      25.5      13.1

                     18        19        20        21        22        23   
                   2.53114   3.29671   3.35114   3.52313   3.86285   4.19681
                   0.00000   0.00000   0.00000   0.00000   0.00000   0.00000
                  --------  --------  --------  --------  --------  --------
 0 O  s              11.3       0.0       0.0       0.4       9.3       0.0
 0 O  pz              0.0       1.0       0.0       0.0       0.0       0.0
 0 O  px              0.0       0.0       0.0       0.0       0.0       6.1
 0 O  py              9.0       0.0       0.0       1.6       3.1       0.0
 0 O  dz2            22.5       0.0       0.0       9.7      53.3       0.0
 0 O  dxz             0.0       0.0      89.5       0.0       0.0       0.0
 0 O  dyz             0.0      88.2       0.0       0.0       0.0       0.0
 0 O  dx2y2           1.5       0.0       0.0      74.6      10.3       0.1
 0 O  dxy             0.0       0.0       0.0       0.1       0.0      67.2
 1 H  s               0.9       0.0       0.0       0.3       6.4       7.5
 1 H  pz              0.0       5.4       5.2       0.0       0.0       0.0
 1 H  px             18.5       0.0       0.0       2.7       2.8       4.0
 1 H  py              8.5       0.0       0.0       3.7       2.8       1.7
 2 H  s               0.9       0.0       0.0       0.3       6.4       7.5
 2 H  pz              0.0       5.4       5.2       0.0       0.0       0.0
 2 H  px             17.4       0.0       0.0       3.0       2.5       3.8
 2 H  py              9.6       0.0       0.0       3.4       3.1       2.0



                      *****************************
                      * MAYER POPULATION ANALYSIS *
                      *****************************

  NA   - Mulliken gross atomic population
  ZA   - Total nuclear charge
  QA   - Mulliken gross atomic charge
  VA   - Mayer's total valence
  BVA  - Mayer's bonded valence
  FA   - Mayer's free valence

  ATOM       NA         ZA         QA         VA         BVA        FA
  0 O      8.3829     8.0000    -0.3829     1.9685     1.9685    -0.0000
  1 H      0.8085     1.0000     0.1915     0.9899     0.9899    -0.0000
  2 H      0.8085     1.0000     0.1915     0.9899     0.9899    -0.0000

  Mayer bond orders larger than 0.100000
B(  0-O ,  1-H ) :   0.9843 B(  0-O ,  2-H ) :   0.9843 

-------
TIMINGS
-------

Total SCF time: 0 days 0 hours 0 min 0 sec 

Total time                  ....       0.236 sec
Sum of individual times     ....       0.213 sec  ( 90.3%)

SCF preparation             ....       0.041 sec  ( 17.4%)
Fock matrix formation       ....       0.026 sec  ( 11.0%)
  Startup                   ....       0.015 sec  ( 57.7% of F)
  Coulomb+Exchange Fock     ....       0.003 sec  ( 11.5% of F)
Diagonalization             ....       0.000 sec  (  0.0%)
Density matrix formation    ....       0.014 sec  (  5.9%)
Total Energy calculation    ....       0.012 sec  (  5.1%)
Population analysis         ....       0.060 sec  ( 25.4%)
Orbital Transformation      ....       0.009 sec  (  3.8%)
Orbital Orthonormalization  ....       0.000 sec  (  0.0%)
DIIS solution               ....       0.032 sec  ( 13.6%)
  MO trafo                  ....       0.000 sec  (  0.0 % of DIIS)
  Orb grad                  ....       0.000 sec  (  0.0 % of DIIS)
  Energy W gradient         ....       0.000 sec  (  0.0 % of DIIS)
  DIIS error                ....       0.002 sec  (  6.3 % of DIIS)
  DIIS work                 ....       0.010 sec  ( 31.2 % of DIIS)
  Form Q                    ....       0.000 sec  (  0.0 % of DIIS)
  Form QpQm                 ....       0.000 sec  (  0.0 % of DIIS)
  Exp/Cayley                ....       0.000 sec  (  0.0 % of DIIS)
  Orb update                ....       0.000 sec  (  0.0 % of DIIS)
  Wake-sleep                ....       0.020 sec  ( 62.5 % of DIIS)
SOSCF solution              ....       0.019 sec  (  8.1%)
  MO trafo                  ....       0.012 sec  ( 63.2 % of SOSCF)
  Orb grad                  ....       0.002 sec  ( 10.5 % of SOSCF)
  Rot update                ....       0.000 sec  (  0.0 % of SOSCF)
  Step                      ....       0.003 sec  ( 15.8 % of SOSCF)
Finished LeanSCF after   0.3 sec

Maximum memory used throughout the entire LEANSCF-calculation: 6.0 MB

-------------------------   --------------------
FINAL SINGLE POINT ENERGY       -75.957213465336
-------------------------   --------------------



           ************************************************************
           *        Program running with 20 parallel MPI-processes    *
           *              working on a common directory               *
           ************************************************************

------------------------------------------------------------------------------
                              ORCA PROPERTY CALCULATIONS
------------------------------------------------------------------------------

GBWName                                 ... D:\hty\creat\code\github\orcacal\Test\ORCA_cal\ORCA_structure\H2O_2\input.gbw
Number of atoms                         ...      3
Number of basis functions               ...     24
Max core memory                         ...   1000 MB

Electric properties:
Dipole moment                           ... YES
Quadrupole moment                       ...  NO
Static polarizability (Dipole/Dipole)   ...  NO
Static polarizability (Dipole/Quad.)    ...  NO
Static polarizability (Quad./Quad.)     ...  NO
Static polarizability (Velocity)        ...  NO

Atomic electric properties:
Dipole moment                           ...  NO
Quadrupole moment                       ...  NO
Static polarizability                   ...  NO

Choice of electric origin               ... Center of mass
Position of electric origin             ...     0.014050     0.635331     0.000000

General magnetic properties:
Magnetizability                         ...  NO

EPR properties:
g-Tensor (aka g-matrix)                 ...  NO
Zero-Field splitting spin-orbit         ...  NO
Zero-field splitting spin-spin          ...  NO
Hyperfine couplings                     ...  NO (   0 nuclei)
Quadrupole couplings                    ...  NO (   0 nuclei)
Contact density                         ...  NO (   0 nuclei)

NMR properties:
Chemical shifts                         ...  NO (   0 nuclei)
Spin-rotation constants                 ...  NO (   0 nuclei)
Spin-spin couplings                     ...  NO (   0 nuclei,    0 pairs)

Choice of magnetic origin               ... GIAO
Position of magnetic origin             ...     0.000000     0.000000     0.000000

Properties with geometric perturbations:
SCF Hessian                             ...  NO
IR spectrum                             ...  NO
VCD spectrum                            ...  NO
X-ray spectroscopy properties:
SCF XES/XAS/RIXS spectra                ...  NO


-------------
DIPOLE MOMENT
-------------

Method             : SCF
Type of density    : Electron Density
Multiplicity       :   1
Irrep              :   0
Energy             :   -75.9572134653355135 Eh
Relativity type    : 
Basis              : AO
                                X                 Y                 Z
Electronic contribution:      0.003465164       0.156676884      -0.000000000
Nuclear contribution   :     -0.022311427      -1.008876028       0.000000000
                        -----------------------------------------
Total Dipole Moment    :     -0.018846263      -0.852199144      -0.000000000
                        -----------------------------------------
Magnitude (a.u.)       :      0.852407509
Magnitude (Debye)      :      2.166647702



--------------------
Rotational spectrum 
--------------------
 
Rotational constants in cm-1:            25.623763            13.637725             8.900575 
Rotational constants in MHz :        768181.078073        408848.701469        266832.531956 

Dipole components along the rotational axes: 
x,y,z [a.u.] :     0.000001    -0.852408    -0.000000 
x,y,z [Debye]:     0.000004    -2.166648    -0.000000 

 

Dipole moment calculation done in   0.0 sec 

Maximum memory used throughout the entire PROP-calculation: 1.4 MB

--------------------------------
SUGGESTED CITATIONS FOR THIS RUN
--------------------------------

Below you find a list of papers that are relevant to this ORCA run
We neither can nor want to force you to cite these papers, but we appreciate if you do
You receive ORCA, which is the product of decades of hard work by many enthusiastic individuals, for free
The only thing we kindly ask in return is that you cite our papers,
We deeply appreciate it, if you show your appreciation for ORCA by not just citing the generic ORCA reference.

Please note that relegating all ORCA citations to the supporting information does *not* help us.
SI sections are not indexed - citations you put there will not count into any citation statistics
But we need these citations in order to attract the funding resources that allow us to do what we are doing

Therefore, if you are a happy ORCA user, please consider citing a few of the papers listed below in the main body of your paper

In addition to the list printed below, the program has created the file D:\hty\creat\code\github\orcacal\Test\ORCA_cal\ORCA_structure\H2O_2\input.bibtex that contains the list in bibtex format
You can import this file easily into all common literature databanks and citation aid programs


List of essential papers. We consider these as the minimum necessary citations

  1. Neese,F.
     Software update: the ORCA program system, version 5.0
     WIRES Comput. Molec. Sci., 2022 12(1)e1606
     doi.org/10.1002/wcms.1606

List of papers to cite with high priority. The work reported in these papers was absolutely
necessary for this run to complete.
Our perspective: the developers of density functionals and basis sets usually get cited in chemistry papers
Good! But without the algorithms to do something with them, the functionals or basis sets would not do anything.
Hence, in our opinion, the algorithm design and method developments papers are equally worthy of getting cited

  1. Neese,F.
     The SHARK Integral Generation and Digestion System
     J. Comp. Chem., 2022  1-16
     doi.org/10.1002/jcc.26942

List of suggested additional citations. These are papers that are important in the 'surrounding' of 
of this run, or papers that preceded the highly important papers. If you like your results we are grateful for a citation.

  1. Neese,F.
     The ORCA program system
     WIRES Comput. Molec. Sci., 2012 2(1)73-78
     doi.org/10.1002/wcms.81
  2. Neese,F.
     Software update: the ORCA program system, version 4.0
     WIRES Comput. Molec. Sci., 2018 8(1)1-6
     doi.org/10.1002/wcms.1327
  3. Neese,F.; Wennmohs,F.; Becker,U.; Riplinger,C.
     The ORCA quantum chemistry program package
     J. Chem. Phys., 2020 152 Art. No. L224108
     doi.org/10.1063/5.0004608

List of optional additional citations

  1. Neese,F.
     Approximate second-order SCF convergence for spin unrestricted wavefunctions
     Chem. Phys. Lett., 2000 325(1-3)93-98
     doi.org/10.1016/s0009-2614(00)00662-x

Timings for individual modules:

Sum of individual times          ...        2.219 sec (=   0.037 min)
Startup calculation              ...        0.521 sec (=   0.009 min)  23.5 %
SCF iterations                   ...        1.209 sec (=   0.020 min)  54.5 %
Property calculations            ...        0.489 sec (=   0.008 min)  22.0 %
                             ****ORCA TERMINATED NORMALLY****
TOTAL RUN TIME: 0 days 0 hours 0 minutes 3 seconds 120 msec
