Generated by Multiwfn
SP        RB3LYP                                              6-31G(d)
Number of atoms                            I                5
Charge                                     I                0
Multiplicity                               I                1
Number of electrons                        I               58
Number of alpha electrons                  I               29
Number of beta electrons                   I               29
Number of basis functions                  I              120
Number of independent functions            I              120
Atomic numbers                             I   N=           5
           6          17          17          17           1
Nuclear charges                            R   N=           5
  6.00000000E+00  1.70000000E+01  1.70000000E+01  1.70000000E+01  1.00000000E+00
Current cartesian coordinates              R   N=          15
  2.50140807E+00  5.78788766E-01 -1.25420316E+00  6.42437737E-01  3.05297033E+00
  7.25748238E-02  6.57339164E-01 -2.19351898E+00 -1.75259288E+00  5.19325034E+00
 -7.97969350E-02  6.58802021E-01  3.17419157E+00  1.21353077E+00 -3.07486792E+00
Translation vectors                        R   N=           0
Number of contracted shells                I               50
Number of primitive shells                 I              103
Highest angular momentum                   I                2
Largest degree of contraction              I                7
Shell types                                I   N=          50
           0           0           0           0           0           1
           1           1          -2          -2           0           0
           0           0           0           1           1           1
           1           1          -2          -2           0           0
           0           0           0           1           1           1
           1           1          -2          -2           0           0
           0           0           0           1           1           1
           1           1          -2          -2           0           0
           0           1
Number of primitives per shell             I   N=          50
           6           2           1           1           1           4
           1           1           1           1           7           3
           2           1           1           5           1           1
           1           1           2           1           7           3
           2           1           1           5           1           1
           1           1           2           1           7           3
           2           1           1           5           1           1
           1           1           2           1           3           1
           1           1
Shell to atom map                          I   N=          50
           1           1           1           1           1           1
           1           1           1           1           2           2
           2           2           2           2           2           2
           2           2           2           2           3           3
           3           3           3           3           3           3
           3           3           3           3           4           4
           4           4           4           4           4           4
           4           4           4           4           5           5
           5           5
Primitive exponents                        R   N=         103
  1.35753497E+04  2.03523337E+03  4.63225624E+02  1.31200196E+02  4.28530159E+01
  1.55841858E+01  6.20671385E+00  2.57648965E+00  5.76963394E-01  2.29728314E-01
  9.51644400E-02  3.46972322E+01  7.95826228E+00  2.37808269E+00  8.14332082E-01
  2.88875473E-01  1.00568237E-01  1.09700000E+00  3.18000000E-01  6.95079909E+04
  1.04261569E+04  2.37323341E+03  6.71564201E+02  2.18419998E+02  7.75722497E+01
  2.88888153E+01  1.27105272E+02  3.93395830E+01  7.67406800E+00  3.87456276E+00
  1.83858326E+00  5.02290575E-01  1.79627234E-01  6.66504233E+02  1.57642417E+02
  5.02625210E+01  1.85360781E+01  7.29405328E+00  2.94332490E+00  1.04049708E+00
  3.84564151E-01  1.30696427E-01  4.61000000E+00  1.01100000E+00  3.39000000E-01
  6.95079909E+04  1.04261569E+04  2.37323341E+03  6.71564201E+02  2.18419998E+02
  7.75722497E+01  2.88888153E+01  1.27105272E+02  3.93395830E+01  7.67406800E+00
  3.87456276E+00  1.83858326E+00  5.02290575E-01  1.79627234E-01  6.66504233E+02
  1.57642417E+02  5.02625210E+01  1.85360781E+01  7.29405328E+00  2.94332490E+00
  1.04049708E+00  3.84564151E-01  1.30696427E-01  4.61000000E+00  1.01100000E+00
  3.39000000E-01  6.95079909E+04  1.04261569E+04  2.37323341E+03  6.71564201E+02
  2.18419998E+02  7.75722497E+01  2.88888153E+01  1.27105272E+02  3.93395830E+01
  7.67406800E+00  3.87456276E+00  1.83858326E+00  5.02290575E-01  1.79627234E-01
  6.66504233E+02  1.57642417E+02  5.02625210E+01  1.85360781E+01  7.29405328E+00
  2.94332490E+00  1.04049708E+00  3.84564151E-01  1.30696427E-01  4.61000000E+00
  1.01100000E+00  3.39000000E-01  3.40613410E+01  5.12357460E+00  1.16466260E+00
  3.27230410E-01  1.03072410E-01  8.00000000E-01
Contraction coefficients                   R   N=         103
  6.06454917E-04  4.69790882E-03  2.43324776E-02  9.73999683E-02  3.01955842E-01
  6.62336091E-01  6.55953085E-01  3.75856333E-01  1.00000000E+00  1.00000000E+00
  1.00000000E+00  1.13272200E-02  7.61696592E-02  3.01922522E-01  7.27850273E-01
  1.00000000E+00  1.00000000E+00  1.00000000E+00  1.00000000E+00  5.14573920E-04
  3.97813448E-03  2.04561787E-02  8.01481029E-02  2.34547703E-01  4.45433686E-01
  3.54668425E-01  1.12936881E-01  4.83735142E-01 -1.22922974E+00  6.72968216E-01
  3.49560514E-01  1.00000000E+00  1.00000000E+00  3.35025084E-03  2.67639704E-02
  1.23626824E-01  3.58457879E-01  6.16772964E-01  1.00000000E+00  1.00000000E+00
  1.00000000E+00  1.00000000E+00  1.82658350E-01  9.13291752E-01  1.00000000E+00
  5.14573920E-04  3.97813448E-03  2.04561787E-02  8.01481029E-02  2.34547703E-01
  4.45433686E-01  3.54668425E-01  1.12936881E-01  4.83735142E-01 -1.22922974E+00
  6.72968216E-01  3.49560514E-01  1.00000000E+00  1.00000000E+00  3.35025084E-03
  2.67639704E-02  1.23626824E-01  3.58457879E-01  6.16772964E-01  1.00000000E+00
  1.00000000E+00  1.00000000E+00  1.00000000E+00  1.82658350E-01  9.13291752E-01
  1.00000000E+00  5.14573920E-04  3.97813448E-03  2.04561787E-02  8.01481029E-02
  2.34547703E-01  4.45433686E-01  3.54668425E-01  1.12936881E-01  4.83735142E-01
 -1.22922974E+00  6.72968216E-01  3.49560514E-01  1.00000000E+00  1.00000000E+00
  3.35025084E-03  2.67639704E-02  1.23626824E-01  3.58457879E-01  6.16772964E-01
  1.00000000E+00  1.00000000E+00  1.00000000E+00  1.00000000E+00  1.82658350E-01
  9.13291752E-01  1.00000000E+00  2.54393072E-02  1.90085949E-01  8.52441130E-01
  1.00000000E+00  1.00000000E+00  1.00000000E+00
Coordinates of each shell                  R   N=         150
  2.50140807E+00  5.78788766E-01 -1.25420316E+00  2.50140807E+00  5.78788766E-01
 -1.25420316E+00  2.50140807E+00  5.78788766E-01 -1.25420316E+00  2.50140807E+00
  5.78788766E-01 -1.25420316E+00  2.50140807E+00  5.78788766E-01 -1.25420316E+00
  2.50140807E+00  5.78788766E-01 -1.25420316E+00  2.50140807E+00  5.78788766E-01
 -1.25420316E+00  2.50140807E+00  5.78788766E-01 -1.25420316E+00  2.50140807E+00
  5.78788766E-01 -1.25420316E+00  2.50140807E+00  5.78788766E-01 -1.25420316E+00
  6.42437737E-01  3.05297033E+00  7.25748238E-02  6.42437737E-01  3.05297033E+00
  7.25748238E-02  6.42437737E-01  3.05297033E+00  7.25748238E-02  6.42437737E-01
  3.05297033E+00  7.25748238E-02  6.42437737E-01  3.05297033E+00  7.25748238E-02
  6.42437737E-01  3.05297033E+00  7.25748238E-02  6.42437737E-01  3.05297033E+00
  7.25748238E-02  6.42437737E-01  3.05297033E+00  7.25748238E-02  6.42437737E-01
  3.05297033E+00  7.25748238E-02  6.42437737E-01  3.05297033E+00  7.25748238E-02
  6.42437737E-01  3.05297033E+00  7.25748238E-02  6.42437737E-01  3.05297033E+00
  7.25748238E-02  6.57339164E-01 -2.19351898E+00 -1.75259288E+00  6.57339164E-01
 -2.19351898E+00 -1.75259288E+00  6.57339164E-01 -2.19351898E+00 -1.75259288E+00
  6.57339164E-01 -2.19351898E+00 -1.75259288E+00  6.57339164E-01 -2.19351898E+00
 -1.75259288E+00  6.57339164E-01 -2.19351898E+00 -1.75259288E+00  6.57339164E-01
 -2.19351898E+00 -1.75259288E+00  6.57339164E-01 -2.19351898E+00 -1.75259288E+00
  6.57339164E-01 -2.19351898E+00 -1.75259288E+00  6.57339164E-01 -2.19351898E+00
 -1.75259288E+00  6.57339164E-01 -2.19351898E+00 -1.75259288E+00  6.57339164E-01
 -2.19351898E+00 -1.75259288E+00  5.19325034E+00 -7.97969350E-02  6.58802021E-01
  5.19325034E+00 -7.97969350E-02  6.58802021E-01  5.19325034E+00 -7.97969350E-02
  6.58802021E-01  5.19325034E+00 -7.97969350E-02  6.58802021E-01  5.19325034E+00
 -7.97969350E-02  6.58802021E-01  5.19325034E+00 -7.97969350E-02  6.58802021E-01
  5.19325034E+00 -7.97969350E-02  6.58802021E-01  5.19325034E+00 -7.97969350E-02
  6.58802021E-01  5.19325034E+00 -7.97969350E-02  6.58802021E-01  5.19325034E+00
 -7.97969350E-02  6.58802021E-01  5.19325034E+00 -7.97969350E-02  6.58802021E-01
  5.19325034E+00 -7.97969350E-02  6.58802021E-01  3.17419157E+00  1.21353077E+00
 -3.07486792E+00  3.17419157E+00  1.21353077E+00 -3.07486792E+00  3.17419157E+00
  1.21353077E+00 -3.07486792E+00  3.17419157E+00  1.21353077E+00 -3.07486792E+00
Virial Ratio                               R      2.000000000000000E+00
Total Energy                               R      0.000000000000000E+00
Alpha Orbital Energies                     R   N=         120
 -1.01546772E+02 -1.01546768E+02 -1.01546721E+02 -1.03586498E+01 -9.47901827E+00
 -9.47901492E+00 -9.47896641E+00 -7.24168578E+00 -7.24168145E+00 -7.24163594E+00
 -7.23130582E+00 -7.23130394E+00 -7.23125366E+00 -7.23120864E+00 -7.23120584E+00
 -7.23115677E+00 -9.44303557E-01 -8.43605543E-01 -8.43565900E-01 -6.56790430E-01
 -5.11394833E-01 -4.78174495E-01 -4.78156008E-01 -3.57381549E-01 -3.57366167E-01
 -3.30005763E-01 -3.29994066E-01 -3.27395022E-01 -3.11800066E-01 -4.51554851E-02
  3.47384373E-03  3.51686728E-03  4.59175292E-02  1.54996127E-01  1.73728653E-01
  1.73751398E-01  2.42400860E-01  2.68537298E-01  2.68554099E-01  3.08958826E-01
  3.08967120E-01  3.13918015E-01  3.33279943E-01  3.33303467E-01  3.55820006E-01
  3.55832775E-01  3.58514864E-01  3.58975053E-01  4.06190463E-01  4.07867637E-01
  4.07897406E-01  4.33259694E-01  4.34608416E-01  4.63706906E-01  4.63735583E-01
  5.94136756E-01  5.94179867E-01  6.10701734E-01  6.23360429E-01  6.23372877E-01
  6.74139030E-01  7.48341668E-01  9.17713007E-01  9.17754707E-01  1.00254592E+00
  1.00422870E+00  1.00428506E+00  1.07295775E+00  1.08944181E+00  1.08953773E+00
  1.45030626E+00  1.61268716E+00  1.66645762E+00  1.66649893E+00  1.70961790E+00
  1.70967232E+00  1.71038767E+00  1.74559213E+00  1.76062730E+00  1.76066203E+00
  1.79369803E+00  1.79375271E+00  1.85989575E+00  1.87459775E+00  1.87475324E+00
  1.91275540E+00  1.91305275E+00  1.97424060E+00  2.00634698E+00  2.07387414E+00
  2.07405545E+00  2.21089792E+00  2.21817411E+00  2.23122811E+00  2.23125526E+00
  2.31745611E+00  2.31750883E+00  2.36640385E+00  2.60224754E+00  2.72175741E+00
  2.72203890E+00  2.85171880E+00  3.09301078E+00  3.09310097E+00  3.18190185E+00
  3.18201582E+00  3.55508866E+00  1.06677437E+01  1.06686774E+01  1.06687161E+01
  1.06744571E+01  1.06967445E+01  1.06967927E+01  1.08908529E+01  1.08909215E+01
  1.10019394E+01  2.15648771E+01  2.47579048E+01  2.47581868E+01  2.50132926E+01
Alpha MO coefficients                      R   N=       14400
 -4.49681899E-05 -1.42064947E-04  4.49807550E-04 -6.95528498E-04  4.75139480E-04
 -2.87773886E-04  3.33570729E-04  2.57251974E-04  9.90299025E-05 -1.59614879E-04
 -3.78759310E-05  1.08054834E-05 -5.22766393E-05  2.41404901E-05 -1.24647006E-05
 -4.81412200E-05  5.09817912E-05 -1.16474322E-05 -6.37189141E-05  4.10235173E-05
 -7.41953048E-06 -8.27010144E-06  3.47331506E-05  4.51509692E-05  1.03007329E+00
  1.91462025E-03 -1.43105060E-01  9.96738804E-03  7.65891281E-03 -3.05079569E-02
  5.50028909E-02  9.49380674E-03 -1.49611275E-02  2.69070568E-02  4.71269205E-03
 -3.68392095E-03  5.95548086E-03  1.73832771E-03 -7.16541721E-05 -9.55923616E-04
  9.61622175E-04 -6.52407726E-04  3.95886320E-04  8.75754648E-04  3.43454054E-05
  4.58419234E-05 -6.29977743E-05  2.57455113E-05  8.76761214E-05 -1.14406176E-04
 -1.19049515E-04  1.65185931E-04 -9.20694565E-05 -2.59883088E-04 -7.20723658E-05
 -5.32814025E-05  1.72709082E-04 -1.80753541E-05 -6.38686892E-05  3.03944924E-05
  1.21317206E-04  5.85261445E-05  8.52905323E-06  5.59704147E-05  3.00568859E-05
  3.17094980E-05 -6.38844024E-05 -3.27835505E-05  3.07174900E-05 -1.35789338E-04
 -6.27538290E-05  1.25765494E-06 -6.38025286E-05 -3.37196354E-05  1.02629382E-05
 -3.73749483E-06 -2.08476015E-06  7.47032554E-06 -1.36139191E-05 -9.11390370E-06
 -2.25083196E-05  2.41912753E-05 -6.63774028E-07 -1.82282663E-05  4.01120236E-05
 -1.76874813E-05  4.37493443E-05 -7.84561527E-05 -9.65153724E-05 -4.52873408E-05
  3.43259368E-05  1.34042566E-05 -1.90138482E-05  1.79351226E-05  1.28859457E-05
  5.86476473E-05 -5.16383421E-05 -2.83222015E-05  1.13552717E-04 -8.68622393E-05
 -3.60734787E-05  6.08231124E-05 -3.04234167E-05 -1.36199257E-05  1.69107428E-06
 -1.57115173E-05  4.57971546E-06 -7.55719268E-06  5.37789016E-06  5.22437006E-07
 -1.24970711E-05  2.43529372E-05  9.48045701E-07 -2.67581419E-05 -3.39272359E-05
 -2.35491116E-05  2.49503200E-06 -5.11667990E-06  1.42482047E-05 -2.40133916E-06
 -4.45427440E-05 -1.41033648E-04  4.48106734E-04 -6.99400662E-04  4.82654865E-04
 -2.83414070E-04 -4.11513233E-04 -1.72344971E-06  1.00699403E-04  1.60211114E-04
  7.39312589E-05  1.01782293E-05  2.51594238E-05  5.17559349E-05 -4.44416616E-05
  1.73381698E-06  4.11453324E-06 -3.09369973E-05  7.98298426E-05  1.16337791E-05
 -3.39731016E-05 -5.21876641E-05  1.85235080E-05 -3.00978018E-05  4.63420883E-05
 -1.66883428E-05  3.98529173E-05 -8.04668529E-05 -1.00393142E-04 -1.81264324E-05
 -5.26375737E-05 -6.33788296E-06 -1.51067997E-05 -2.40777299E-05 -2.11259966E-08
  3.26692508E-05  7.73337836E-05  6.46402729E-06  4.26016037E-05  1.42432756E-04
  1.68780336E-05  7.58189623E-06  7.02019019E-05  1.30715392E-06  3.70308157E-06
  5.17141962E-06 -1.17513671E-05  3.85804695E-06  1.28336195E-05 -2.44330370E-05
 -7.36842468E-06  2.87398485E-06 -9.02789855E-06  2.76340202E-05  1.02999402E+00
  1.77374340E-03 -1.42596485E-01  1.00454362E-02  7.68629425E-03 -3.02284776E-02
 -4.91013108E-02 -2.66942038E-02 -1.48242780E-02 -2.40627224E-02 -1.30048906E-02
 -3.66213253E-03 -5.77158833E-03 -2.31651480E-03 -9.24369879E-05  1.30712993E-04
  1.37932780E-03 -6.60798199E-04 -8.72030162E-04  4.61806451E-04  5.92804734E-05
 -1.81655077E-05 -2.67175137E-05  4.09378040E-05 -9.72143571E-05 -1.55440307E-04
  6.80918510E-05  1.04434787E-04 -1.19260968E-04  2.74477722E-04  1.54767142E-05
 -1.72595725E-05  4.57265259E-05 -7.96254614E-05 -9.97001528E-05 -4.49039584E-05
 -3.61956732E-05 -1.07001696E-05 -1.87950080E-05 -2.24863789E-05 -9.41957262E-07
  5.86693507E-05  5.90757491E-05  9.81751590E-06  1.14153069E-04  9.31670870E-05
  2.63219239E-05  6.19134530E-05  3.26764199E-05  8.30259273E-06 -8.49174940E-07
 -1.58063832E-05  7.67039764E-07 -8.99820554E-06  5.10021249E-06 -2.11072910E-05
  6.73439199E-06 -7.31862651E-06 -1.20549731E-05  2.83965841E-05 -3.35251528E-05
 -2.19750127E-05  2.62681921E-06 -4.99554236E-06 -9.23276687E-06 -1.05254134E-05
 -2.93880229E-05 -1.06890649E-04  3.32241229E-04 -6.61651216E-04  3.64306626E-04
  3.18112894E-04 -9.29343992E-05  2.69450753E-04 -9.90509037E-05  1.53248471E-05
 -4.44143409E-05 -4.86568766E-05 -1.97961703E-06  5.31999254E-06  7.70251356E-06
  8.14014438E-05 -2.47188207E-05  4.96157880E-05 -2.80599500E-05  1.95148227E-05
  3.83890094E-05 -1.39989044E-05  1.92946368E-06 -1.34914127E-05 -5.46467542E-05
 -1.82769151E-05  5.30583162E-05 -6.13715049E-05 -5.40861481E-05  4.23901646E-05
 -2.60960288E-05  2.06310119E-05  1.82711878E-05 -8.92620860E-06  1.45623487E-05
 -4.92594359E-05  2.00884553E-05 -3.60022282E-05 -9.38311166E-05  3.64787703E-05
 -6.68527359E-05 -2.37530379E-05  1.70026642E-05 -2.32471849E-05  8.98621416E-06
  8.75268514E-06 -7.58291843E-06  2.38458958E-06  1.46024341E-05  1.47393649E-05
  1.95810910E-05  4.17786693E-06  5.11656118E-06 -2.12159155E-06 -3.05247239E-05
 -2.00375548E-05  5.56294865E-05 -5.84353328E-05 -5.21636344E-05  4.39533961E-05
  1.03145556E-05  3.32745189E-05  1.91091459E-05 -7.55953594E-07  1.74092853E-05
 -4.96593802E-05  6.10879294E-06 -4.04410751E-05 -9.44830241E-05  1.16743113E-05
 -7.46317952E-05 -2.44013906E-05  4.27495611E-07 -2.85053618E-05  9.38107574E-06
 -2.14132614E-06 -7.02360330E-06  2.83913333E-06 -1.68429628E-05  1.03221368E-06
  1.68556360E-05 -1.57709320E-05 -2.68955471E-06 -1.04979072E-05  1.03492901E+00
  6.10888741E-03 -1.59363617E-01  1.04633028E-02  8.46529200E-03  3.91686830E-02
 -4.98700082E-03  1.48415815E-02  1.92204872E-02 -2.46996771E-03  7.34722452E-03
  4.52143228E-03 -7.68585856E-04  2.26122491E-03 -1.46957903E-04 -2.95007730E-04
  8.36449897E-04  6.20267830E-04 -2.97676239E-04  8.55652995E-04  3.94069118E-06
 -9.77748963E-05  2.29138445E-05 -6.55736246E-05  3.36413951E-05 -1.87104657E-05
  2.18326135E-04 -5.00629345E-05  1.60882543E-04 -7.49930191E-05 -3.34058441E-05
 -1.34365012E-05  1.38445652E-05  6.00264233E-06 -1.71288426E-07  5.76222990E-07
  4.71832160E-01  6.20102406E-01  1.62776453E-02 -4.92331074E-02  1.08283321E-02
 -6.06489230E-04 -5.72201652E-04  1.64713430E-03  1.80713769E-03  1.70655600E-03
 -4.88693393E-03  8.39139904E-04  7.87924259E-04 -2.26330551E-03  1.75412269E-04
 -1.28728896E-04 -1.21782244E-04  2.88648436E-06  4.47228663E-05  2.14066628E-03
 -1.57003664E-03 -1.48426856E-03  3.15280090E-05  5.48171009E-04 -4.45197125E-04
 -4.26636854E-04  2.56737457E-03 -3.60869834E-03  1.43037897E-03  1.65694235E-03
 -2.29959620E-03 -1.10029436E-03  8.23234306E-04 -1.16463813E-03 -5.27214179E-04
 -2.15279045E-03  3.07399392E-03  1.35385074E-03 -3.17644571E-03  4.42377275E-03
  2.09621530E-03 -5.37036964E-04  6.33292787E-04  4.53559398E-04  4.13696220E-04
  4.63940829E-04 -6.65734548E-04  3.08253313E-04  9.66256034E-04 -2.39535166E-04
  2.06215172E-04 -7.63326763E-06 -1.13715314E-04 -6.44364116E-05 -4.45509981E-04
 -4.26846986E-04  2.56910977E-03 -3.61051351E-03  1.43054770E-03  1.64443382E-03
  2.49570857E-03  5.67911694E-04  8.16954909E-04  1.24520677E-03  3.11203917E-04
 -2.13607387E-03 -3.26262359E-03 -8.50859211E-04 -3.15255511E-03 -4.78859731E-03
 -1.10807993E-03 -5.33231989E-04 -7.80571475E-04 -3.90163946E-05  6.32754242E-04
 -2.35467042E-04 -3.49013194E-04  4.45954185E-04 -1.04145507E-03 -5.58430469E-05
  2.00662711E-04  2.60016684E-04 -7.53241517E-06 -7.85005347E-05 -4.44902862E-04
 -4.26396596E-04  2.56515635E-03 -3.60386145E-03  1.42663498E-03 -2.49969271E-03
  5.62200937E-04 -1.63505024E-03 -1.26566774E-03  2.73508284E-04 -7.95796416E-04
  3.34018825E-03 -7.07842661E-04  2.05987070E-03  4.80920366E-03 -1.07434958E-03
  3.12452753E-03  6.90727274E-04 -2.10757841E-04  6.11474483E-04  8.62119311E-05
 -1.05863658E-03  2.29149447E-04 -7.37317994E-04  3.64242694E-04 -2.85213499E-04
  1.89044626E-05  1.51050755E-04  1.12983843E-04 -6.06427643E-06 -5.75742462E-03
 -9.10278726E-03 -5.43505055E-03  8.93428942E-04  8.42232947E-04 -2.41623237E-03
  3.41212330E-03  7.43786618E-03 -1.37671548E-02 -2.65474021E-02  2.57694531E-02
  1.07842172E-02  1.64221835E-02  4.03092140E-03  9.72530542E-03  1.50125909E-02
  4.71574556E-03 -4.73420892E-04 -5.03492479E-04  9.60281552E-04 -3.47148871E-04
 -3.25103145E-04 -4.21427219E-04 -2.58592707E-04  8.35771799E-04 -2.46073007E-03
 -1.23551884E-03 -2.11087835E-03 -6.79848727E-04  2.50900349E-03 -2.44431762E-04
 -5.66135840E-05 -1.17739200E-04  1.33401755E-03 -5.33298241E-03 -1.04389152E-03
 -9.93762973E-04  3.90603259E-04 -4.77185377E-04 -3.34835212E-04  2.41892315E-04
  1.23797880E-03  7.13288513E-04 -6.98350325E-04  3.05187403E-03  3.35127515E-03
 -6.07962971E-04 -5.41705007E-04  1.27209188E-03 -5.41946509E-04  7.89767353E-05
 -3.39316822E-04 -5.54513335E-04  9.21397817E-04  3.78626961E-05 -2.54836962E-04
 -9.45718843E-04 -7.13261977E-04  1.68739437E-03  4.06832307E-04 -4.45283218E-02
 -1.50347713E-01  4.88039309E-01  2.59047075E-01  1.36742396E-01  1.80794366E-01
  2.84592555E-01  1.14902664E-01  8.78585396E-02  1.38413453E-01  5.64381662E-02
 -5.49972420E-03 -8.20838012E-04  3.78993351E-02 -4.85330906E-02 -6.18246874E-02
  4.61413617E-02 -2.93301654E-02 -3.65162532E-02  3.23493822E-02  7.96975718E-04
  3.26194093E-04  5.14830378E-04  3.54386056E-04 -1.11088363E-03  2.64764512E-03
 -7.58048397E-05 -6.35695885E-05  1.55925501E-03 -4.05195390E-03 -2.38904985E-05
 -5.63821662E-05 -1.47759019E-04  1.33578092E-03 -5.32497027E-03 -6.15332170E-04
 -1.27999615E-03  4.48369355E-04 -1.81461182E-04 -5.34020221E-04  2.81201920E-04
  3.57326040E-04  1.31822929E-03 -8.10931799E-04  2.15652982E-03  3.96500721E-03
 -7.22960220E-04  1.45121259E-03 -1.05235320E-04 -2.86470731E-04  7.27055586E-05
 -4.63808568E-04 -6.74218218E-04 -5.65093546E-04 -5.34386459E-04 -9.58503424E-05
 -4.33915569E-04 -1.47347615E-03 -1.30464128E-03 -6.38861712E-04  8.09542063E-04
  3.46142802E-03  1.80391257E-03  5.94679598E-04  8.98792578E-04  1.84820501E-04
  3.41091230E-03  7.43507518E-03 -1.37627262E-02 -2.65267061E-02  2.57343375E-02
  1.08590929E-02 -1.53144902E-02 -7.01156869E-03  9.79467520E-03 -1.46348436E-02
 -5.60558589E-03 -4.85731936E-04 -2.07174779E-04  1.07228728E-03  2.91237975E-04
 -7.75044291E-04  5.09277827E-04  1.17502762E-04 -4.53614490E-04  9.55166303E-04
 -2.53631849E-03  2.86807665E-03  1.31351092E-03 -1.19425143E-03 -4.40212414E-02
 -1.50473115E-01  4.88498542E-01  2.58831601E-01  1.36586039E-01  1.82487331E-01
 -2.93046114E-01 -8.63163924E-02  8.86828008E-02 -1.42868591E-01 -4.15473770E-02
 -5.42309415E-03 -2.28491152E-02  3.01154549E-02 -4.87530201E-02  1.95948075E-02
  7.42997050E-02 -2.94513252E-02  8.42382822E-03  4.78668251E-02 -2.12644337E-04
  9.48300282E-04 -9.53410610E-04 -2.38613512E-04  6.66010781E-04  6.61554069E-04
  2.46623100E-03 -2.95532986E-03  3.71038027E-04  3.23374908E-03  8.52947559E-06
 -5.59277308E-05 -1.54031008E-04  1.33751665E-03 -5.32790837E-03 -1.05616746E-03
  5.18270210E-04  9.13224566E-04 -4.82326737E-04  1.03600615E-04  3.92825783E-04
  1.24006075E-03 -1.19844444E-04 -9.87034163E-04  3.06869975E-03 -2.23174679E-03
 -2.54740936E-03 -5.32978106E-04 -6.60750833E-04 -1.21356644E-03  1.92352260E-04
 -2.86127320E-04 -3.88918334E-04  9.85706056E-04  1.91183634E-04 -7.37845619E-05
 -9.87519533E-04 -4.47033513E-04  1.79200923E-03  2.86673489E-04 -1.04018886E-05
 -5.54628090E-05 -1.55445530E-04  1.34436320E-03 -5.31257573E-03 -6.15120141E-04
  7.18465078E-04  1.14503973E-03 -1.81030153E-04  2.41543139E-04  5.51757408E-04
  3.56114895E-04 -5.23981200E-04 -1.45353315E-03  2.15889882E-03 -2.63848258E-03
 -3.02337105E-03  1.44050725E-03  2.73432733E-04 -1.60838640E-04  7.86957867E-04
 -3.54735575E-05  3.68716689E-04 -1.58711367E-04  7.05222039E-04  1.63595825E-03
  4.78127879E-05  1.05336416E-03 -3.11355883E-04  7.66382550E-04  8.08868413E-04
  3.44900799E-03  1.80780144E-03  5.98915716E-04 -8.15493725E-04 -4.12252866E-04
  3.40743872E-03  7.42744530E-03 -1.37462202E-02 -2.65267741E-02  2.57707208E-02
 -1.66565974E-02  3.62284742E-03 -1.05582984E-02 -1.59157833E-02  3.05089916E-03
 -8.91152668E-03 -2.18193713E-04 -3.85360309E-04  1.08558383E-03  6.23622326E-04
  6.87449401E-04 -4.84450058E-04  1.48764561E-04 -2.39049061E-04  2.28838144E-03
  3.20369197E-03 -1.31221055E-03 -6.30159436E-04 -1.12066888E-03 -3.43042605E-07
 -5.61122066E-05 -1.51380152E-04  1.33297047E-03 -5.33138722E-03  6.79750063E-04
 -1.74814838E-04  1.31148046E-03  1.91331500E-04 -1.56514665E-05  5.99424360E-04
 -3.60351567E-04 -2.71900790E-05 -1.54436791E-03 -2.66526594E-03  6.89523223E-04
 -3.64481978E-03 -2.24359636E-04  1.42399135E-03 -3.65181140E-04  7.93501197E-04
 -2.69452064E-05  3.28850795E-04 -4.06154002E-04  6.12477433E-04  1.69742350E-03
  3.00282163E-04  8.60003631E-04 -4.67849040E-04  7.41953634E-04  2.99190662E-06
 -5.70220104E-05 -1.45939957E-04  1.32399566E-03 -5.34196123E-03  6.87072955E-04
 -6.72661728E-04  1.13996066E-03  1.95004067E-04 -3.58392717E-04  4.80930138E-04
 -3.70544969E-04  9.76496678E-04 -1.19740434E-03 -2.68487910E-03  1.70477320E-03
 -3.29655421E-03 -2.29415899E-04 -8.93802513E-04 -1.17466220E-03  1.92293609E-04
 -3.99778575E-04 -5.49854344E-04 -7.46634055E-04 -4.70522173E-04  1.46750636E-04
 -2.19110453E-04 -1.40416000E-03 -1.35325630E-03 -7.79658051E-04 -4.37803363E-02
 -1.50441812E-01  4.88302792E-01  2.59000743E-01  1.36703238E-01 -3.18019510E-01
  5.13615274E-02 -1.50643729E-01 -1.55041379E-01  2.48397611E-02 -7.28681440E-02
 -2.45547511E-02 -9.82037283E-03  2.78510044E-02  2.17066610E-02 -2.91518961E-02
  8.37156430E-02  9.43650619E-03 -1.85083662E-02  5.31118745E-02 -6.98187101E-04
 -1.18913976E-03  5.21874031E-04 -1.14714547E-04  4.14043375E-04 -8.17471114E-04
 -4.21959695E-03  1.29537279E-03 -1.88834766E-03  1.45815878E-03  8.13558275E-04
  3.47473503E-03  1.81110708E-03 -8.89303611E-04  2.06953208E-04 -6.02606997E-04
 -4.97019128E-04 -1.12948861E-03  3.69918734E-03 -1.01064329E-03  2.63890301E-03
 -1.57849726E-03 -2.24510766E-03  2.54418702E-04  1.10857824E-03  1.78140201E-03
  9.14373029E-04 -1.34146194E-04 -2.22573627E-04 -1.31882398E-04  8.07691907E-05
 -1.21054042E-04 -1.71320588E-04  6.25172762E-05 -1.01472651E-04  1.08612951E-03
 -6.71526028E-04 -1.00589720E-03  8.47959338E-04 -1.85505640E-03 -4.17508545E-05
 -3.05882835E-05  2.68804554E-04 -4.65171306E-04 -8.40562810E-04  1.51636242E-05
 -3.09578371E-04 -1.65862858E-05 -3.08613601E-05 -1.84727653E-04 -1.25350187E-05
  1.04454713E-04  5.19151244E-04  3.37818850E-05 -3.65191490E-04  9.22386729E-04
  1.66627988E-04  1.26937800E-05  8.89307503E-04  1.64864659E-04  1.64709307E-05
  1.49693763E-05  1.70053223E-06 -1.15408833E-04 -2.67833682E-05 -2.53782581E-04
  5.77480270E-05  1.33159241E-04 -3.91518691E-04  2.17031599E-04 -1.51183061E-01
 -1.14481762E-01  4.45795633E-01 -1.23586003E-02 -2.08119612E-02 -3.32224223E-01
 -5.01453308E-01 -1.01138376E-01 -1.61635973E-01 -2.43955745E-01 -4.91342212E-02
 -3.42998295E-02 -5.09079970E-02 -5.84851768E-03  9.92755074E-03  1.65964787E-02
  1.15477367E-02 -1.84414774E-04  7.83362516E-04  5.58338922E-03  5.42134725E-05
  8.16245315E-05  1.29079557E-04  1.68842304E-06 -4.95291430E-05 -1.02681779E-03
  4.16147739E-04  6.40093867E-04 -7.80549433E-04  1.81481595E-03 -4.43585521E-05
 -3.05659092E-05  2.68194996E-04 -4.62511683E-04 -8.44055989E-04 -2.88168810E-04
 -1.00384738E-04 -5.56269926E-05 -1.57964943E-04 -9.73352441E-05 -2.86030989E-05
  4.37730278E-04  2.89851628E-04  7.57557848E-05  9.47529313E-04  1.63680931E-05
  3.36531916E-04  7.89384921E-04  3.55415856E-04  2.64982733E-04  1.07478564E-05
  3.38074776E-06  3.92646718E-05  1.00619578E-04  5.21868423E-05 -2.40082812E-04
  1.49927622E-04  1.38914335E-04  1.10130645E-04  4.17054126E-04 -2.24813799E-05
 -2.94902223E-04 -6.03543818E-04 -1.60954092E-04 -2.67273086E-04 -1.80622946E-04
  4.97276995E-04  1.13009470E-03 -3.70010102E-03  1.01136403E-03 -2.63133437E-03
  1.59213031E-03 -1.60142573E-03 -1.58934105E-03 -1.11594945E-03  1.95580370E-03
  3.86165743E-04  1.37074864E-04 -2.59421324E-04 -3.42152654E-05 -1.56523944E-04
  3.15145611E-05  5.91150650E-05 -1.05129674E-04 -1.55081266E-04 -1.02383141E-03
 -6.28833034E-04  1.08996223E-03 -7.91011019E-04 -1.87947250E-03  1.50775702E-01
  1.14310389E-01 -4.45091740E-01  1.22973899E-02  2.07453588E-02  3.35486263E-01
 -4.53651304E-01 -2.32589950E-01  1.63222366E-01 -2.20658126E-01 -1.13208688E-01
  3.46287152E-02 -4.33228187E-02 -2.70570802E-02 -1.00377390E-02  2.00894881E-02
  1.28930106E-03  1.75876787E-04  4.06643507E-03 -3.86714146E-03  8.55224956E-05
 -9.58599064E-05  7.59074258E-05  8.00415601E-05  1.22133923E-05  7.14503038E-04
  8.06546545E-04 -1.09344910E-03  5.80078054E-04  1.68950387E-03  4.49305416E-05
  3.05442635E-05 -2.69252824E-04  4.65593307E-04  8.37304135E-04 -1.32895944E-05
 -2.53179826E-04 -1.78928681E-04  3.19098910E-05 -1.52573653E-04 -1.04738679E-04
 -1.07624559E-04  4.27517557E-04  2.95374213E-04  3.59378128E-04  8.27881652E-04
  4.41161455E-04 -2.00451950E-05  7.99143670E-04  4.22846795E-04 -4.40225861E-05
 -2.78285329E-05 -4.21131976E-05  9.98121401E-05 -1.02359588E-05  8.89311205E-05
  9.11845679E-05 -3.72016739E-04  2.93407799E-04  2.09873179E-04  4.46259667E-05
  3.04078643E-05 -2.68196088E-04  4.63379398E-04  8.38093340E-04  2.88020633E-04
 -1.11797870E-04 -1.83955680E-05  1.58224567E-04 -9.34558578E-05 -3.76741903E-05
 -4.38433549E-04  2.72405722E-04  1.19627499E-04 -9.45869192E-04  2.17002267E-04
 -2.54045414E-04 -7.88138328E-04  4.39147336E-04  1.33885824E-05  6.21708422E-05
  2.93116178E-05  6.71528953E-05 -5.86919031E-05  4.21368491E-05  2.55239114E-04
  1.40492297E-04 -1.15380208E-04 -1.04903440E-04  4.18402808E-04  2.38174777E-05
  2.94202786E-04  6.06000892E-04  1.62822583E-04 -3.21224667E-04 -2.45186041E-05
  4.98979580E-04  1.13525135E-03 -3.71529660E-03  1.03487263E-03 -2.65208699E-03
 -1.75800293E-03  7.03105667E-04 -2.03163255E-03  2.12610454E-03 -2.72376647E-04
  7.99036660E-04 -2.70644933E-04  3.16447247E-05 -8.78767744E-05 -1.40763938E-04
  1.21882284E-04  3.36826738E-05  1.60683678E-04 -4.13227931E-05 -4.97446690E-04
  1.86725016E-03 -2.86416144E-04  1.60014413E-03 -6.40309507E-04  4.48905889E-05
  3.10942661E-05 -2.70616331E-04  4.67432477E-04  8.44407279E-04 -2.00436252E-04
  2.24665683E-04 -8.16738988E-05 -1.34650830E-04  1.08165213E-04 -7.57131388E-05
  3.83166910E-04 -2.93347426E-04  2.26143157E-04  5.73320480E-04 -8.29101661E-04
 -5.72879747E-05  6.73820898E-04 -5.70674883E-04  2.01309294E-04  6.04880055E-05
  2.62806642E-05  7.75388205E-05  1.07533815E-06  6.37098797E-05  1.57037628E-04