[Molden Format]
[Title]
 Molden file created by orca_2mkl for BaseName=D:\hty\creat\code\github\orcacal\Goble\..\Test\ORCA_cal\ORCA_structure\Oxalic_acid_1\input

[Atoms] AU
O    1   8          2.6914802408         2.1767944309        -0.0000566918 
O    2   8         -2.6914235490        -2.1767188419         0.0000755890 
O    3   8          2.5337070058        -2.0151472574         0.0000188973 
O    4   8         -2.5336314168         2.0152039492        -0.0000188973 
C    5   6          1.3913486606        -0.0116596102        -0.0000188973 
C    6   6         -1.3912730716         0.0117163020         0.0000000000 
[GTO]
  1 0
s   6 1.0 
    27032.3826310000         0.8598581479
     4052.3871392000         1.6055305368
      922.3272271000         2.7458778516
      261.2407098900         4.2987674426
       85.3546413510         5.8797663284
       31.0350352450         6.3163983216
s   2 1.0 
       12.2608607280         2.9812147522
        4.9987076005         0.9419559635
s   1 1.0 
        1.1703108158         0.8019291610
s   1 1.0 
        0.4647474099         0.4011648062
s   1 1.0 
        0.1850453636         0.2010799406
p   4 1.0 
       63.2749548010         3.0572017144
       14.6270493790         3.3844839414
        4.4501223456         2.9474262132
        1.5275799647         1.7118271494
p   1 1.0 
        0.5293511794         0.6436057926
p   1 1.0 
        0.1747842127         0.1610897254
d   1 1.0 
        2.3140000000        12.3767310624
d   1 1.0 
        0.6450000000         1.3234257612

  2 0
s   6 1.0 
    27032.3826310000         0.8598581479
     4052.3871392000         1.6055305368
      922.3272271000         2.7458778516
      261.2407098900         4.2987674426
       85.3546413510         5.8797663284
       31.0350352450         6.3163983216
s   2 1.0 
       12.2608607280         2.9812147522
        4.9987076005         0.9419559635
s   1 1.0 
        1.1703108158         0.8019291610
s   1 1.0 
        0.4647474099         0.4011648062
s   1 1.0 
        0.1850453636         0.2010799406
p   4 1.0 
       63.2749548010         3.0572017144
       14.6270493790         3.3844839414
        4.4501223456         2.9474262132
        1.5275799647         1.7118271494
p   1 1.0 
        0.5293511794         0.6436057926
p   1 1.0 
        0.1747842127         0.1610897254
d   1 1.0 
        2.3140000000        12.3767310624
d   1 1.0 
        0.6450000000         1.3234257612

  3 0
s   6 1.0 
    27032.3826310000         0.8598581479
     4052.3871392000         1.6055305368
      922.3272271000         2.7458778516
      261.2407098900         4.2987674426
       85.3546413510         5.8797663284
       31.0350352450         6.3163983216
s   2 1.0 
       12.2608607280         2.9812147522
        4.9987076005         0.9419559635
s   1 1.0 
        1.1703108158         0.8019291610
s   1 1.0 
        0.4647474099         0.4011648062
s   1 1.0 
        0.1850453636         0.2010799406
p   4 1.0 
       63.2749548010         3.0572017144
       14.6270493790         3.3844839414
        4.4501223456         2.9474262132
        1.5275799647         1.7118271494
p   1 1.0 
        0.5293511794         0.6436057926
p   1 1.0 
        0.1747842127         0.1610897254
d   1 1.0 
        2.3140000000        12.3767310624
d   1 1.0 
        0.6450000000         1.3234257612

  4 0
s   6 1.0 
    27032.3826310000         0.8598581479
     4052.3871392000         1.6055305368
      922.3272271000         2.7458778516
      261.2407098900         4.2987674426
       85.3546413510         5.8797663284
       31.0350352450         6.3163983216
s   2 1.0 
       12.2608607280         2.9812147522
        4.9987076005         0.9419559635
s   1 1.0 
        1.1703108158         0.8019291610
s   1 1.0 
        0.4647474099         0.4011648062
s   1 1.0 
        0.1850453636         0.2010799406
p   4 1.0 
       63.2749548010         3.0572017144
       14.6270493790         3.3844839414
        4.4501223456         2.9474262132
        1.5275799647         1.7118271494
p   1 1.0 
        0.5293511794         0.6436057926
p   1 1.0 
        0.1747842127         0.1610897254
d   1 1.0 
        2.3140000000        12.3767310624
d   1 1.0 
        0.6450000000         1.3234257612

  5 0
s   6 1.0 
    13575.3496820000         0.5435905310
     2035.2333680000         1.0145543947
      463.2256235900         1.7315731970
      131.2001959800         2.6910376290
       42.8530158910         3.6044547126
       15.5841857660         3.7025556986
s   2 1.0 
        6.2067138508         1.8383540830
        2.5764896527         0.5447575605
s   1 1.0 
        0.5769633942         0.4718145038
s   1 1.0 
        0.2297283136         0.2364944676
s   1 1.0 
        0.0951644400         0.1221141848
p   4 1.0 
       34.6972322440         1.3596651507
        7.9582622826         1.4512589486
        2.3780826883         1.2709231419
        0.8143320818         0.8025721189
p   1 1.0 
        0.2888754725         0.3018758868
p   1 1.0 
        0.1005682367         0.0807265016
d   1 1.0 
        1.0970000000         3.3522135855
d   1 1.0 
        0.3180000000         0.3838994974

  6 0
s   6 1.0 
    13575.3496820000         0.5435905310
     2035.2333680000         1.0145543947
      463.2256235900         1.7315731970
      131.2001959800         2.6910376290
       42.8530158910         3.6044547126
       15.5841857660         3.7025556986
s   2 1.0 
        6.2067138508         1.8383540830
        2.5764896527         0.5447575605
s   1 1.0 
        0.5769633942         0.4718145038
s   1 1.0 
        0.2297283136         0.2364944676
s   1 1.0 
        0.0951644400         0.1221141848
p   4 1.0 
       34.6972322440         1.3596651507
        7.9582622826         1.4512589486
        2.3780826883         1.2709231419
        0.8143320818         0.8025721189
p   1 1.0 
        0.2888754725         0.3018758868
p   1 1.0 
        0.1005682367         0.0807265016
d   1 1.0 
        1.0970000000         3.3522135855
d   1 1.0 
        0.3180000000         0.3838994974

[5D]
[7F]
[9G]
[MO]
 Sym=     1a
 Ene= -1.92544157017028E+01
 Spin= Alpha
 Occup= 2.000000
  1       0.000275883655
  2       0.000344720632
  3       0.000516704111
  4      -0.001383463750
  5      -0.000851987553
  6      -0.000118895603
  7      -0.000107214635
  8      -0.000000010881
  9       0.000861467465
 10       0.000600977330
 11      -0.000000002369
 12       0.000660341278
 13      -0.000191348678
 14       0.000000005321
 15      -0.000043881153
 16      -0.000000000291
 17       0.000000000353
 18       0.000034122766
 19       0.000026287804
 20       0.000250926305
 21       0.000000002203
 22       0.000000003173
 23      -0.000208126951
 24      -0.000251396241
 25      -0.000194017478
 26      -0.000242720949
 27      -0.000343658627
 28       0.000603898572
 29       0.002158529211
 30      -0.000116099186
 31      -0.000131369152
 32       0.000000004040
 33       0.000790109840
 34       0.000569648054
 35      -0.000000025084
 36       0.000966072778
 37      -0.000152036335
 38      -0.000000029771
 39       0.000067477621
 40      -0.000000002704
 41       0.000000010845
 42      -0.000034510675
 43      -0.000024840017
 44      -0.000330988909
 45      -0.000000023509
 46      -0.000000018355
 47       0.000207916434
 48       0.000236516445
 49       0.242405174186
 50       0.356308024828
 51       0.020478902357
 52      -0.018503306069
 53       0.006075991298
 54      -0.000718580750
 55       0.001096710003
 56      -0.000000023071
 57       0.002573905362
 58      -0.003388329003
 59       0.000000071144
 60      -0.000571686346
 61       0.000406323764
 62      -0.000000001944
 63      -0.000049427970
 64       0.000000003336
 65      -0.000000004068
 66      -0.000071169825
 67      -0.000140364839
 68       0.000296681451
 69      -0.000000017880
 70       0.000000018334
 71       0.000243891271
 72       0.000758212122
 73      -0.361299336766
 74      -0.531098431435
 75      -0.030231829924
 76       0.026111831449
 77      -0.009593016099
 78      -0.001005959519
 79       0.001612803281
 80      -0.000000009903
 81       0.003231611497
 82      -0.004653771094
 83       0.000000024544
 84      -0.000570496023
 85       0.000562964779
 86      -0.000000005918
 87       0.000094370206
 88      -0.000000001497
 89       0.000000000625
 90       0.000107140714
 91       0.000205829760
 92      -0.000479926332
 93       0.000000006729
 94      -0.000000001673
 95      -0.000411679822
 96      -0.001040346731
 97       0.000007106009
 98      -0.000058385659
 99      -0.000600705068
100       0.001117987865
101      -0.000163528986
102       0.000145822253
103      -0.000370893169
104       0.000000006202
105       0.006976013443
106      -0.003663288764
107       0.000000044633
108      -0.001616982645
109       0.001348186685
110      -0.000000037078
111      -0.000052928752
112       0.000000002422
113      -0.000000004066
114      -0.000030020489
115      -0.000089987508
116      -0.001498710613
117       0.000000040057
118      -0.000000117284
119      -0.004217627179
120      -0.001673231917
121      -0.000018001250
122       0.000123584949
123       0.000383218534
124      -0.002512767486
125       0.001035386655
126       0.000209571541
127      -0.000510932632
128       0.000000006346
129       0.007784794297
130      -0.005060589878
131       0.000000002844
132      -0.002185973580
133       0.003810159428
134      -0.000000027396
135       0.000124128403
136       0.000000002094
137       0.000000001851
138       0.000072563671
139       0.000152121943
140       0.001753248450
141      -0.000000057347
142       0.000000116342
143       0.004525822095
144       0.002426929179
 Sym=     1a
 Ene= -1.92544080144623E+01
 Spin= Alpha
 Occup= 2.000000
  1      -0.000163806669
  2      -0.000204332324
  3      -0.000355132723
  4       0.001784476135
  5      -0.003613408640
  6      -0.000016032048
  7      -0.000084726301
  8       0.000000011227
  9      -0.000018636127
 10       0.000035274365
 11      -0.000000009004
 12       0.000936212919
 13       0.000065894468
 14       0.000000011665
 15      -0.000070979978
 16      -0.000000001169
 17       0.000000000039
 18       0.000007767680
 19       0.000001368507
 20       0.000260588681
 21      -0.000000002378
 22       0.000000005262
 23      -0.000040540879
 24      -0.000010233597
 25      -0.000257353169
 26      -0.000321467538
 27      -0.000524800270
 28       0.002176272356
 29      -0.003020768694
 30      -0.000030294010
 31       0.000037763067
 32      -0.000000000824
 33       0.000344007070
 34       0.000195287287
 35      -0.000000013233
 36      -0.000615973538
 37      -0.000133532389
 38       0.000000025488
 39      -0.000049043355
 40       0.000000005532
 41      -0.000000008386
 42      -0.000005744142
 43      -0.000008663290
 44       0.000145992793
 45       0.000000000252
 46       0.000000008416
 47       0.000041405120
 48       0.000085854868
 49       0.361294111403
 50       0.531139031570
 51       0.029754568039
 52      -0.023711233129
 53       0.010470046409
 54      -0.000899465775
 55       0.001577220226
 56      -0.000000030512
 57       0.002241891309
 58      -0.004005717067
 59       0.000000073905
 60      -0.000109090799
 61       0.000492312796
 62      -0.000000014996
 63      -0.000128318209
 64       0.000000003651
 65      -0.000000005750
 66      -0.000108982783
 67      -0.000200405675
 68       0.000541964816
 69      -0.000000015763
 70       0.000000024742
 71       0.000490974818
 72       0.000893863240
 73       0.242397388715
 74       0.356368548465
 75       0.019767487542
 76      -0.014924940483
 77       0.007383187344
 78       0.000559860282
 79      -0.001043661703
 80       0.000000009382
 81      -0.001098733291
 82       0.002422292330
 83      -0.000000027906
 84      -0.000116024164
 85      -0.000301036094
 86      -0.000000006929
 87      -0.000100031896
 88       0.000000001792
 89      -0.000000003025
 90      -0.000073913206
 91      -0.000132279426
 92       0.000389162099
 93      -0.000000009042
 94       0.000000012987
 95       0.000362053770
 96       0.000539878277
 97       0.000030140884
 98      -0.000183510926
 99       0.000455386370
100       0.003900351972
101      -0.002331158453
102       0.000196932798
103      -0.000442524258
104       0.000000009325
105       0.003507395100
106      -0.004408133573
107       0.000000077349
108      -0.001818867085
109       0.006758409043
110      -0.000000126841
111      -0.000198280812
112       0.000000004160
113      -0.000000007571
114      -0.000118172943
115      -0.000181722288
116      -0.000966627741
117       0.000000048687
118      -0.000000070771
119      -0.001643560333
120      -0.002318704584
121       0.000025203514
122      -0.000147702474
123       0.000649245812
124       0.003186062924
125      -0.002094728078
126      -0.000126976883
127       0.000268923756
128      -0.000000001811
129      -0.000600820692
130       0.002690706758
131      -0.000000033908
132       0.001069817822
133      -0.005742494371
134       0.000000103457
135      -0.000163460358
136      -0.000000000705
137      -0.000000005551
138      -0.000098015809
139      -0.000134114252
140      -0.000326224027
141       0.000000021590
142       0.000000026050
143       0.000078345458
144      -0.001511441757
 Sym=     1a
 Ene= -1.92464855723672E+01
 Spin= Alpha
 Occup= 2.000000
  1      -0.298491973685
  2      -0.438810405939
  3      -0.024383217330
  4       0.019176882121
  5      -0.008404424607
  6       0.000802554052
  7       0.001138863279
  8      -0.000000017287
  9      -0.002354602811
 10      -0.003024414114
 11       0.000000044162
 12       0.000762036015
 13       0.001009944416
 14      -0.000000031102
 15       0.000067564776
 16       0.000000002805
 17       0.000000001082
 18       0.000050543397
 19      -0.000148129906
 20      -0.000352716860
 21      -0.000000011628
 22      -0.000000006047
 23      -0.000179311537
 24       0.000811839637
 25       0.316585911800
 26       0.465413345176
 27       0.025831517775
 28      -0.020228630352
 29       0.009013131563
 30       0.000840965514
 31       0.001204602175
 32      -0.000000046742
 33      -0.002426223222
 34      -0.003168239758
 35       0.000000125529
 36       0.000786820200
 37       0.001072298658
 38      -0.000000028902
 39      -0.000073135494
 40      -0.000000005936
 41      -0.000000007351
 42      -0.000055305870
 43       0.000155270165
 44       0.000373565602
 45       0.000000032417
 46       0.000000038167
 47       0.000201324753
 48      -0.000842974993
 49       0.000233975093
 50       0.000400813922
 51      -0.000461092182
 52       0.001590874120
 53       0.001115530238
 54       0.000104074284
 55      -0.000099887051
 56      -0.000000024733
 57      -0.000919780212
 58       0.000598469602
 59       0.000000022785
 60      -0.000848553824
 61      -0.000316408507
 62      -0.000000017741
 63       0.000040308785
 64       0.000000008429
 65       0.000000004022
 66      -0.000031584143
 67       0.000013990539
 68      -0.000235426260
 69      -0.000000001477
 70      -0.000000000912
 71       0.000215347793
 72      -0.000196350034
 73      -0.000220961422
 74      -0.000378786486
 75       0.000435674613
 76      -0.001453152155
 77      -0.001312955492
 78       0.000104682297
 79      -0.000103875838
 80      -0.000000005106
 81      -0.000913435862
 82       0.000589485762
 83       0.000000006409
 84      -0.000898324330
 85      -0.000330821753
 86       0.000000040781
 87      -0.000044105101
 88      -0.000000006561
 89       0.000000006328
 90       0.000032699008
 91      -0.000013832177
 92       0.000249129654
 93       0.000000018007
 94      -0.000000004160
 95      -0.000220977198
 96       0.000195703129
 97      -0.000015371197
 98       0.000095089470
 99       0.000593203812
100       0.000517347771
101      -0.000187308671
102      -0.000051973008
103      -0.000119125101
104       0.000000003266
105      -0.006478620749
106      -0.002222272090
107       0.000000058923
108       0.002494705774
109       0.002304414798
110      -0.000000002945
111       0.000104941401
112      -0.000000000609
113       0.000000001152
114       0.000081990005
115      -0.000123633429
116       0.001164378853
117       0.000000013611
118       0.000000134027
119       0.004001089333
120      -0.001503982730
121       0.000017162476
122      -0.000104977593
123      -0.000578612253
124      -0.000427054159
125       0.000043618825
126      -0.000054751933
127      -0.000128106742
128       0.000000004269
129      -0.006544003973
130      -0.002348346314
131       0.000000129169
132       0.002603807153
133       0.002704067632
134      -0.000000136828
135      -0.000117738044
136      -0.000000007907
137      -0.000000012524
138      -0.000088644169
139       0.000135435466
140      -0.001182172532
141      -0.000000023426
142      -0.000000159611
143      -0.004028636781
144       0.001627247259
 Sym=     1a
 Ene= -1.92464792353371E+01
 Spin= Alpha
 Occup= 2.000000
  1      -0.316580376012
  2      -0.465456576786
  3      -0.025353340546
  4       0.018450451691
  5      -0.010606159035
  6       0.000676844347
  7       0.001151414419
  8      -0.000000018928
  9      -0.001286480904
 10      -0.002532328319
 11       0.000000042118
 12       0.000444132493
 13       0.001092863007
 14      -0.000000004615
 15       0.000096789364
 16       0.000000001175
 17       0.000000004935
 18       0.000081904257
 19      -0.000125704699
 20      -0.000364898195
 21      -0.000000007850
 22      -0.000000019969
 23      -0.000377603948
 24       0.000552945838
 25      -0.298486100533
 26      -0.438856247941
 27      -0.023876141682
 28       0.017291294140
 29      -0.010093902952
 30      -0.000628511174
 31      -0.001082462103
 32       0.000000038820
 33       0.001145894200
 34       0.002350108112
 35      -0.000000079222
 36      -0.000398547405
 37      -0.001031682085
 38       0.000000045019
 39       0.000092651651
 40       0.000000004439
 41       0.000000008460
 42       0.000078754669
 43      -0.000116777189
 44      -0.000343531401
 45      -0.000000015753
 46      -0.000000032585
 47      -0.000366288659
 48       0.000504265016
 49      -0.000198423406
 50      -0.000338631917
 51       0.000416821766
 52      -0.002286773676
 53       0.003390757239
 54       0.000013067928
 55      -0.000071119994
 56       0.000000025179
 57       0.000080442442
 58      -0.000131967479
 59      -0.000000021729
 60      -0.000872186040
 61      -0.000254102933
 62       0.000000013826
 63       0.000065584321
 64       0.000000009967
 65       0.000000006461
 66      -0.000019805318
 67      -0.000002278657
 68      -0.000239785441
 69      -0.000000002251
 70      -0.000000010534
 71       0.000101433990
 72       0.000004870893
 73      -0.000210754459
 74      -0.000359975370
 75       0.000443059590
 76      -0.002375787708
 77       0.003319182344
 78      -0.000006915610
 79       0.000065141970
 80      -0.000000006727
 81      -0.000134280259
 82       0.000166773475
 83       0.000000006369
 84       0.000820849754
 85       0.000235081837
 86      -0.000000033280
 87       0.000063096302
 88       0.000000000725
 89       0.000000004903
 90      -0.000017953559
 91      -0.000003103445
 92      -0.000225533237
 93      -0.000000010904
 94      -0.000000009022
 95       0.000088628616
 96       0.000016371975
 97      -0.000030920875
 98       0.000171081595
 99      -0.000231373516
100      -0.001519959185
101       0.002440614737
102      -0.000048622486
103      -0.000155851422
104       0.000000001783
105      -0.001301584852
106      -0.002206182668
107       0.000000043824
108       0.001929742733
109       0.006865501247
110      -0.000000151335
111       0.000220805762
112       0.000000003421
113       0.000000009242
114       0.000115539325
115      -0.000204411901
116       0.000336738557
117       0.000000040644
118       0.000000009332
119       0.000588158164
120      -0.002130122247
121      -0.000029964325
122       0.000165192890
123      -0.000265815431
124      -0.001547660694
125       0.002446980154
126       0.000045488753
127       0.000148573700
128      -0.000000006183
129       0.000918760937
130       0.002071448885
131      -0.000000065952
132      -0.001780100171
133      -0.006718100328
134       0.000000177690
135       0.000214249443
136       0.000000009357
137       0.000000013512
138       0.000110512986
139      -0.000196772519
140       0.000267772301
141       0.000000048751
142       0.000000060966
143       0.000352171133
144      -0.002037892156
 Sym=     1a
 Ene= -1.03876803368887E+01
 Spin= Alpha
 Occup= 2.000000
  1      -0.000017621813
  2      -0.000131116845
  3       0.001080221583
  4      -0.002228148585
  5       0.003765366082
  6      -0.000176362986
  7      -0.000226832241
  8       0.000000005308
  9       0.000744447770
 10       0.000736572733
 11      -0.000000014266
 12       0.000117236886
 13      -0.001930044355
 14       0.000000022322
 15       0.000001522588
 16      -0.000000001360
 17      -0.000000000982
 18       0.000020622988
 19       0.000117402422
 20       0.000271971657
 21       0.000000012813
 22       0.000000014056
 23       0.000026386025
 24      -0.000899242373
 25      -0.000017655678
 26      -0.000131234137
 27       0.001080901579
 28      -0.002228584333
 29       0.003772419772
 30       0.000176351895
 31       0.000227084240
 32      -0.000000008339
 33      -0.000743741618
 34      -0.000736698151
 35       0.000000031231
 36      -0.000116242138
 37       0.001933312057
 38      -0.000000058494
 39       0.000001523091
 40      -0.000000015511
 41       0.000000012474
 42       0.000020533302
 43       0.000117482540
 44       0.000272171705
 45       0.000000039496
 46       0.000000014761
 47       0.000027064298
 48      -0.000899877264
 49      -0.000051088728
 50      -0.000206981933
 51       0.001575409581
 52      -0.004058195228
 53       0.003447662737
 54      -0.000224405155
 55       0.000304393048
 56      -0.000000013305
 57       0.001545609365
 58      -0.001840076840
 59       0.000000042054
 60       0.000475191594
 61       0.001859836204
 62      -0.000000047982
 63       0.000030966415
 64       0.000000016919
 65       0.000000005332
 66       0.000012531733
 67      -0.000117436333
 68       0.000389576286
 69      -0.000000037105
 70       0.000000011681
 71       0.000218557203
 72       0.001275418475
 73      -0.000051171353
 74      -0.000207201600
 75       0.001576640516
 76      -0.004060092440
 77       0.003454825274
 78       0.000224426066
 79      -0.000304771333
 80      -0.000000004728
 81      -0.001545526947
 82       0.001841646314
 83      -0.000000003708
 84      -0.000474477787
 85      -0.001862975240
 86       0.000000028881
 87       0.000030964538
 88       0.000000002520
 89       0.000000002870
 90       0.000012366839
 91      -0.000117556730
 92       0.000390057842
 93      -0.000000010908
 94       0.000000000387
 95       0.000219668466
 96       0.001276616368
 97       0.329834987061
 98       0.430069123971
 99       0.027076087932
100      -0.014828617562
101       0.000457658144
102       0.000230656280
103      -0.000400371569
104       0.000000012749
105       0.000293730955
106      -0.001484740216
107       0.000000019489
108      -0.003236054504
109      -0.000000938042
110       0.000000023314
111      -0.000914215044
112       0.000000003509
113      -0.000000034882
114      -0.000332872547
115      -0.000317527472
116       0.000665619565
117       0.000000024646
118      -0.000000017366
119      -0.002247932154
120      -0.000107663548
121       0.330309013513
122       0.430686905430
123       0.027119819352
124      -0.014880248475
125       0.000477637320
126      -0.000230923009
127       0.000400944247
128       0.000000001780
129      -0.000305640605
130       0.001485734763
131      -0.000000019994
132       0.003246137425
133       0.000000837017
134      -0.000000041052
135      -0.000915589717
136      -0.000000014218
137      -0.000000035432
138      -0.000333240085
139      -0.000317906299
140       0.000669956082
141       0.000000038510
142      -0.000000019540
143      -0.002250205791
144      -0.000108069466
 Sym=     1a
 Ene= -1.03873879676286E+01
 Spin= Alpha
 Occup= 2.000000
  1      -0.000021712598
  2      -0.000082261382
  3       0.000479610237
  4      -0.000331857519
  5       0.004880017169
  6       0.000001649711
  7      -0.000174661595
  8       0.000000001660
  9      -0.000485659484
 10       0.000099199702
 11      -0.000000001177
 12      -0.000696394629
 13      -0.002268757549
 14       0.000000038769
 15      -0.000000742639
 16      -0.000000001086
 17      -0.000000000568
 18      -0.000063424788
 19       0.000056005985
 20       0.000137076172
 21       0.000000006235
 22       0.000000013656
 23       0.000484469380
 24      -0.000439138694
 25       0.000021690046
 26       0.000082074046
 27      -0.000478074371
 28       0.000328735105
 29      -0.004874644651
 30       0.000001887277
 31      -0.000174332061
 32       0.000000004524
 33      -0.000486681571
 34       0.000098173866
 35       0.000000007193
 36      -0.000696577714
 37      -0.002265976847
 38       0.000000070255
 39       0.000000745538
 40      -0.000000010063
 41       0.000000013937
 42       0.000063450152
 43      -0.000055839871
 44      -0.000136688199
 45      -0.000000002551
 46      -0.000000027735
 47      -0.000484419757
 48       0.000437878134
 49      -0.000055700494
 50      -0.000154564520
 51       0.000862973323
 52      -0.001333125175
 53       0.005034441326
 54      -0.000039042592
 55       0.000255009293
 56       0.000000002055
 57      -0.000033262527
 58      -0.001074448392
 59       0.000000014267
 60      -0.000521373866
 61       0.002212708388
 62      -0.000000039407
 63       0.000001527342
 64      -0.000000011479
 65      -0.000000004174
 66      -0.000064249108
 67      -0.000073272990
 68       0.000330899818
 69      -0.000000009996
 70       0.000000024464
 71       0.000730662299
 72       0.000824260929
 73       0.000055629976
 74       0.000154265487
 75      -0.000860698444
 76       0.001327274101
 77      -0.005029556776
 78      -0.000038758614
 79       0.000254555954
 80      -0.000000010555
 81      -0.000035430061
 82      -0.001071756232
 83       0.000000025409
 84      -0.000522062727
 85       0.002210071410
 86      -0.000000033229
 87      -0.000001486234
 88      -0.000000000678
 89       0.000000001153
 90       0.000064192454
 91       0.000073092470
 92      -0.000330334103
 93       0.000000015160
 94      -0.000000013266
 95      -0.000730275295
 96      -0.000822429467
 97       0.330368397711
 98       0.430561095410
 99       0.030408023900
100      -0.035830040019
101       0.013685616103
102       0.000174276351
103      -0.000394130966
104       0.000000012306
105       0.008201006399
106      -0.000665265886
107      -0.000000048723
108      -0.006891078969
109       0.000072428765
110       0.000000012403
111      -0.000952770294
112       0.000000000782
113      -0.000000035464
114      -0.000260523744
115      -0.000270425076
116       0.002989428068
117       0.000000042320
118       0.000000064903
119      -0.001575024599
120      -0.000260936378
121      -0.329894453157
122      -0.429943120618
123      -0.030369146055
124       0.035808763388
125      -0.013684908712
126       0.000173951509
127      -0.000393558474
128      -0.000000003075
129       0.008200521660
130      -0.000663082573
131      -0.000000029844
132      -0.006886461652
133       0.000072422638
134       0.000000088193
135       0.000951462239
136       0.000000013671
137       0.000000034989
138       0.000260036713
139       0.000269957966
140      -0.002988470796
141      -0.000000066661
142      -0.000000081035
143       0.001571881975
144       0.000260710284
 Sym=     1a
 Ene= -1.18886595909011E+00
 Spin= Alpha
 Occup= 2.000000
  1      -0.027416348620
  2      -0.064194211541
  3       0.091425362375
  4       0.127700442408
  5       0.041984683392
  6      -0.018146395476
  7      -0.034292522607
  8       0.000000664624
  9      -0.018211647255
 10      -0.033048435106
 11       0.000000607490
 12      -0.003820710800
 13      -0.005731968224
 14       0.000000125527
 15      -0.001149237199
 16      -0.000000069553
 17      -0.000000008747
 18      -0.001052255851
 19       0.001315579107
 20      -0.004908306608
 21      -0.000000065863
 22      -0.000000249529
 23      -0.004089145163
 24       0.005417147512
 25      -0.027418677229
 26      -0.064199672698
 27       0.091433174213
 28       0.127711449767
 29       0.041988921239
 30       0.018147817532
 31       0.034295654590
 32      -0.000001098656
 33       0.018213318349
 34       0.033051568668
 35      -0.000001056920
 36       0.003821213587
 37       0.005732525303
 38      -0.000000174741
 39      -0.001149362918
 40      -0.000000014526
 41      -0.000000138243
 42      -0.001052369875
 43       0.001315718107
 44      -0.004908784847
 45      -0.000000219365
 46      -0.000000347759
 47      -0.004089342135
 48       0.005417714266
 49      -0.053305778299
 50      -0.125159620573
 51       0.181579787088
 52       0.247958185996
 53       0.084950055087
 54      -0.039086179141
 55       0.068301718763
 56      -0.000001230782
 57      -0.034969145641
 58       0.061254574425
 59      -0.000001136722
 60      -0.007673579421
 61       0.012085732117
 62      -0.000000206122
 63      -0.002579912508
 64       0.000000076993
 65      -0.000000118922
 66      -0.002224897040
 67      -0.003463005459
 68      -0.006091617246
 69       0.000000156376
 70      -0.000000290792