
                                 *****************
                                 * O   R   C   A *
                                 *****************

                                            #,                                       
                                            ###                                      
                                            ####                                     
                                            #####                                    
                                            ######                                   
                                           ########,                                 
                                     ,,################,,,,,                         
                               ,,#################################,,                 
                          ,,##########################################,,             
                       ,#########################################, ''#####,          
                    ,#############################################,,   '####,        
                  ,##################################################,,,,####,       
                ,###########''''           ''''###############################       
              ,#####''   ,,,,##########,,,,          '''####'''          '####       
            ,##' ,,,,###########################,,,                        '##       
           ' ,,###''''                  '''############,,,                           
         ,,##''                                '''############,,,,        ,,,,,,###''
      ,#''                                            '''#######################'''  
     '                                                          ''''####''''         
             ,#######,   #######,   ,#######,      ##                                
            ,#'     '#,  ##    ##  ,#'     '#,    #''#        ,####,   ,####,        
            ##       ##  ##   ,#'  ##            #'  '#       #'       #'  '#        
            ##       ##  #######   ##           ,######,      #####,   #    #        
            '#,     ,#'  ##    ##  '#,     ,#' ,#      #,     #,   #   #,  ,#        
             '#######'   ##     ##  '#######'  #'      '#     '####' # '####'        



                #########################################################
                #                        -***-                          #
                #          Department of theory and spectroscopy        #
                #                                                       #
                #                      Frank Neese                      #
                #                                                       #
                #     Directorship, Architecture, Infrastructure        #
                #                    SHARK, DRIVERS                     #
                #        Core code/Algorithms in most modules           #
                #                                                       #
                #        Max Planck Institute fuer Kohlenforschung      #
                #                Kaiser Wilhelm Platz 1                 #
                #                 D-45470 Muelheim/Ruhr                 #
                #                      Germany                          #
                #                                                       #
                #                  All rights reserved                  #
                #                        -***-                          #
                #########################################################


                         Program Version 6.0.0  -   RELEASE   -


 With contributions from (in alphabetic order):
   Daniel Aravena         : Magnetic Suceptibility
   Michael Atanasov       : Ab Initio Ligand Field Theory (pilot matlab implementation)
   Alexander A. Auer      : GIAO ZORA, VPT2 properties, NMR spectrum
   Ute Becker             : All parallelization in ORCA, NUMFREQ, NUMCALC
   Giovanni Bistoni       : ED, misc. LED, open-shell LED, HFLD
   Martin Brehm           : Molecular dynamics
   Dmytro Bykov           : pre 5.0 version of the SCF Hessian
   Marcos Casanova-Páez   : Triplet and SCS-CIS(D). UHF-(DLPNO)-IP/EA/STEOM-CCSD. UHF-CVS-IP/STEOM-CCSD
   Vijay G. Chilkuri      : MRCI spin determinant printing, contributions to CSF-ICE
   Pauline Colinet        : FMM embedding
   Dipayan Datta          : RHF DLPNO-CCSD density
   Achintya Kumar Dutta   : EOM-CC, STEOM-CC
   Nicolas Foglia         : Exact transition moments, OPA infrastructure, MCD improvements
   Dmitry Ganyushin       : Spin-Orbit,Spin-Spin,Magnetic field MRCI
   Miquel Garcia          : C-PCM and meta-GGA Hessian, CCSD/C-PCM, Gaussian charge scheme
   Tiago L. C. Gouveia    : GS-ROHF, GS-ROCIS
   Yang Guo               : DLPNO-NEVPT2, F12-NEVPT2, CIM, IAO-localization
   Andreas Hansen         : Spin unrestricted coupled pair/coupled cluster methods
   Ingolf Harden          : AUTO-CI MPn and infrastructure 
   Benjamin Helmich-Paris : MC-RPA, TRAH-(SCF,CASSCF), AVAS, COSX integrals, SCF dyn. polar.
   Lee Huntington         : MR-EOM, pCC
   Robert Izsak           : Overlap fitted RIJCOSX, COSX-SCS-MP3, EOM
   Riya Kayal             : Wick's Theorem for AUTO-CI, AUTO-CI UHF-CCSDT
   Emily Kempfer          : AUTO-CI, RHF CISDT and CCSDT
   Christian Kollmar      : KDIIS, OOCD, Brueckner-CCSD(T), CCSD density, CASPT2, CASPT2-K, improved NEVPT2
   Axel Koslowski         : Symmetry handling
   Simone Kossmann        : Meta GGA functionals, TD-DFT gradient, OOMP2, (MP2 Hessian; deprecated post 5.0)
   Lucas Lang             : DCDCAS
   Marvin Lechner         : AUTO-CI (C++ implementation), FIC-MRCC
   Spencer Leger          : CASSCF response
   Dagmar Lenk            : GEPOL surface, SMD, ORCA-2-JSON
   Dimitrios Liakos       : Extrapolation schemes; Compound Job, initial MDCI parallelization
   Dimitrios Manganas     : Further ROCIS development; embedding schemes. LFT, Crystal Embedding
   Dimitrios Pantazis     : SARC Basis sets
   Anastasios Papadopoulos: AUTO-CI, single reference methods and gradients
   Taras Petrenko         : pre 6.0 DFT Hessian and TD-DFT gradient, (ASA, deprecated), ECA, 1-Electron XAS/XES, NRVS
   Peter Pinski           : DLPNO-MP2, DLPNO-MP2 Gradient
   Christoph Reimann      : Effective Core Potentials
   Marius Retegan         : Local ZFS, SOC
   Christoph Riplinger    : Optimizer, TS searches, QM/MM, DLPNO-CCSD(T), (RO)-DLPNO pert. Triples
   Michael Roemelt        : Original ROCIS implementation
   Masaaki Saitow         : Open-shell DLPNO-CCSD energy and density
   Barbara Sandhoefer     : DKH picture change effects
   Kantharuban Sivalingam : CASSCF convergence/infrastructure, NEVPT2 and variants, FIC-MRCI
   Bernardo de Souza      : ESD, SOC TD-DFT
   Georgi Stoychev        : AutoAux, RI-MP2 NMR, DLPNO-MP2 response, X2C
   Van Anh Tran           : RI-MP2 g-tensors
   Willem Van den Heuvel  : Paramagnetic NMR
   Zikuan Wang            : NOTCH, Electric field optimization 
   Frank Wennmohs         : Technical directorship and infrastructure
   Hang Xu                : AUTO-CI-Response properties 


 We gratefully acknowledge several colleagues who have allowed us to
 interface, adapt or use parts of their codes:
   Stefan Grimme, W. Hujo, H. Kruse, P. Pracht,  : VdW corrections, initial TS optimization,
                  C. Bannwarth, S. Ehlert,         DFT functionals, gCP, sTDA/sTD-DF
                  L. Wittmann, M. Mueller
   Ed Valeev, F. Pavosevic, A. Kumar             : LibInt (2-el integral package), F12 methods
   Garnet Chan, S. Sharma, J. Yang, R. Olivares  : DMRG
   Ulf Ekstrom                                   : XCFun DFT Library
   Mihaly Kallay                                 : mrcc  (arbitrary order and MRCC methods)
   Frank Weinhold                                : gennbo (NPA and NBO analysis)
   Simon Mueller                                 : openCOSMO-RS
   Christopher J. Cramer and Donald G. Truhlar   : smd solvation model
   Lars Goerigk                                  : TD-DFT with DH, B97 family of functionals
   V. Asgeirsson, H. Jonsson                     : NEB implementation
   FAccTs GmbH                                   : IRC, NEB, NEB-TS, DLPNO-Multilevel, CI-OPT
                                                   MM, QMMM, 2- and 3-layer-ONIOM, Crystal-QMMM,
                                                   LR-CPCM, SF, NACMEs, symmetry and pop. for TD-DFT,
                                                   nearIR, NL-DFT gradient (VV10), updates on ESD,
                                                   ML-optimized integration grids, MBIS, APM,
                                                   GOAT, DOCKER, SOLVATOR, interface openCOSMO-RS
   S Lehtola, MJT Oliveira, MAL Marques          : LibXC Library
   Liviu Ungur et al                             : ANISO software


 Your calculation uses the libint2 library for the computation of 2-el integrals
 For citations please refer to: http://libint.valeyev.net

 Your ORCA version has been built with support for libXC version: 6.2.2
 For citations please refer to: https://libxc.gitlab.io

 This ORCA versions uses:
   CBLAS   interface :  Fast vector & matrix operations
   LAPACKE interface :  Fast linear algebra routines
   Shared memory     :  Shared parallel matrices


NOTE: MaxCore=2000 MB was set to SCF,MP2,MDCI,CIPSI,MRCI and CIS
      => If you want to overwrite this, your respective input block should be placed after the MaxCore statement
Your calculation utilizes the atom-pairwise dispersion correction
with the Becke-Johnson damping scheme (D3BJ)


================================================================================

----- Orbital basis set information -----
Your calculation utilizes the basis: def2-TZVP(-f)
   F. Weigend and R. Ahlrichs, Phys. Chem. Chem. Phys. 7, 3297 (2005).

----- AuxJ basis set information -----
Your calculation utilizes the auxiliary basis: def2/J
   F. Weigend, Phys. Chem. Chem. Phys. 8, 1057 (2006).

================================================================================
                                        WARNINGS
                       Please study these warnings very carefully!
================================================================================


================================================================================
                                       INPUT FILE
================================================================================
NAME = D:\hty\creat\code\github\orcacal\Goble\..\Test\ORCA_cal\ORCA_structure\Oxalic_acid_1\input.inp
|  1> ! B3LYP D3 def2-TZVP(-f) def2/J RIJCOSX tightSCF miniprint nopop LARGEPRINT
|  2> 
|  3> %maxcore  2000
|  4> %pal nprocs  20 end
|  5> 
|  6> * xyz 0 1
|  7>    O        1.42427        1.15191       -0.00003
|  8>    O       -1.42424       -1.15187        0.00004
|  9>    O        1.34078       -1.06637        0.00001
| 10>    O       -1.34074        1.06640       -0.00001
| 11>    C        0.73627       -0.00617       -0.00001
| 12>    C       -0.73623        0.00620        0.00000
| 13> *
| 14> 
| 15> 
| 16> 
| 17> 
| 18>                          ****END OF INPUT****
================================================================================

                       ****************************
                       * Single Point Calculation *
                       ****************************

---------------------------------
CARTESIAN COORDINATES (ANGSTROEM)
---------------------------------
  O      1.424270    1.151910   -0.000030
  O     -1.424240   -1.151870    0.000040
  O      1.340780   -1.066370    0.000010
  O     -1.340740    1.066400   -0.000010
  C      0.736270   -0.006170   -0.000010
  C     -0.736230    0.006200    0.000000

----------------------------
CARTESIAN COORDINATES (A.U.)
----------------------------
  NO LB      ZA    FRAG     MASS         X           Y           Z
   0 O     8.0000    0    15.999    2.691480    2.176794   -0.000057
   1 O     8.0000    0    15.999   -2.691424   -2.176719    0.000076
   2 O     8.0000    0    15.999    2.533707   -2.015147    0.000019
   3 O     8.0000    0    15.999   -2.533631    2.015204   -0.000019
   4 C     6.0000    0    12.011    1.391349   -0.011660   -0.000019
   5 C     6.0000    0    12.011   -1.391273    0.011716    0.000000

--------------------------------
INTERNAL COORDINATES (ANGSTROEM)
--------------------------------
 O      0   0   0     0.000000000000     0.00000000     0.00000000
 O      1   0   0     3.663524466057     0.00000000     0.00000000
 O      1   2   0     2.219850612113    48.87978258     0.00000000
 O      2   1   3     2.219840995522    48.87951494   180.00034263
 C      3   1   2     1.220432866036    31.84657359     0.00000000
 C      4   2   1     1.220432865913    31.84684124     0.00000000

---------------------------
INTERNAL COORDINATES (A.U.)
---------------------------
 O      0   0   0     0.000000000000     0.00000000     0.00000000
 O      1   0   0     6.923057925768     0.00000000     0.00000000
 O      1   2   0     4.194909715112    48.87978258     0.00000000
 O      2   1   3     4.194891542388    48.87951494   180.00034263
 C      3   1   2     2.306283881644    31.84657359     0.00000000
 C      4   2   1     2.306283881412    31.84684124     0.00000000

---------------------
BASIS SET INFORMATION
---------------------
There are 2 groups of distinct atoms

 Group   1 Type O   : 11s6p2d contracted to 5s3p2d pattern {62111/411/11}
 Group   2 Type C   : 11s6p2d contracted to 5s3p2d pattern {62111/411/11}

Atom   0O    basis set group =>   1
Atom   1O    basis set group =>   1
Atom   2O    basis set group =>   1
Atom   3O    basis set group =>   1
Atom   4C    basis set group =>   2
Atom   5C    basis set group =>   2

-------------------------
BASIS SET IN INPUT FORMAT
-------------------------

 # Basis set for element : C 
 NewGTO C 
 S 6 
   1   13575.3496820000      0.0006064549
   2    2035.2333680000      0.0046979088
   3     463.2256235900      0.0243324776
   4     131.2001959800      0.0973999683
   5      42.8530158910      0.3019558425
   6      15.5841857660      0.6623360915
 S 2 
   1       6.2067138508      0.6559530854
   2       2.5764896527      0.3758563329
 S 1 
   1       0.5769633942      1.0000000000
 S 1 
   1       0.2297283136      1.0000000000
 S 1 
   1       0.0951644400      1.0000000000
 P 4 
   1      34.6972322440      0.0113272200
   2       7.9582622826      0.0761696592
   3       2.3780826883      0.3019225220
   4       0.8143320818      0.7278502735
 P 1 
   1       0.2888754725      1.0000000000
 P 1 
   1       0.1005682367      1.0000000000
 D 1 
   1       1.0970000000      1.0000000000
 D 1 
   1       0.3180000000      1.0000000000
  end;

 # Basis set for element : O 
 NewGTO O 
 S 6 
   1   27032.3826310000      0.0005722733
   2    4052.3871392000      0.0044353233
   3     922.3272271000      0.0230201076
   4     261.2407098900      0.0928224906
   5      85.3546413510      0.2937850002
   6      31.0350352450      0.6740160450
 S 2 
   1      12.2608607280      0.6383993702
   2       4.9987076005      0.3953458713
 S 1 
   1       1.1703108158      1.0000000000
 S 1 
   1       0.4647474099      1.0000000000
 S 1 
   1       0.1850453636      1.0000000000
 P 4 
   1      63.2749548010      0.0120183321
   2      14.6270493790      0.0830054217
   3       4.4501223456      0.3199174393
   4       1.5275799647      0.7071554292
 P 1 
   1       0.5293511794      1.0000000000
 P 1 
   1       0.1747842127      1.0000000000
 D 1 
   1       2.3140000000      1.0000000000
 D 1 
   1       0.6450000000      1.0000000000
  end;

---------------------------------
AUXILIARY/J BASIS SET INFORMATION
---------------------------------
There are 2 groups of distinct atoms

 Group   1 Type O   : 12s5p4d2f1g contracted to 6s4p3d1f1g pattern {711111/2111/211/2/1}
 Group   2 Type C   : 12s5p4d2f1g contracted to 6s4p3d1f1g pattern {711111/2111/211/2/1}

Atom   0O    basis set group =>   1
Atom   1O    basis set group =>   1
Atom   2O    basis set group =>   1
Atom   3O    basis set group =>   1
Atom   4C    basis set group =>   2
Atom   5C    basis set group =>   2

-------------------------------------
AUXILIARY/J BASIS SET IN INPUT FORMAT
-------------------------------------

 # Auxiliary/J basis set for element : C 
 NewAuxJGTO C 
 S 7 
   1    1861.0916331000      0.0134602335
   2     642.9939764000      0.0299160374
   3     235.1105725000      0.1008649584
   4      90.7028894000      0.2370970548
   5      36.7794552000      0.3924037254
   6      15.6046273000      0.3195862154
   7       6.8907294000      0.0530104441
 S 1 
   1       3.1478850000     -1.0000000000
 S 1 
   1       1.4777287000      1.0000000000
 S 1 
   1       0.7076466000      1.0000000000
 S 1 
   1       0.3430122000      1.0000000000
 S 1 
   1       0.1669453000      1.0000000000
 P 2 
   1      13.5472892000     -0.6769313712
   2       5.4669419000     -0.3779500978
 P 1 
   1       2.1751721000      1.0000000000
 P 1 
   1       0.8582194000      1.0000000000
 P 1 
   1       0.3376720000      1.0000000000
 D 2 
   1       5.9287253000     -0.3533329857
   2       1.9809209000     -0.7456525731
 D 1 
   1       0.8055417000     -1.0000000000
 D 1 
   1       0.3531244000     -1.0000000000
 F 2 
   1       1.6755626000      0.6311076882
   2       0.5997536000      0.4968166032
 G 1 
   1       1.0024600000     -1.0000000000
  end;

 # Auxiliary/J basis set for element : O 
 NewAuxJGTO O 
 S 7 
   1    2876.8216605000      0.0168151159
   2    1004.7443032000      0.0340137548
   3     369.7579954000      0.1194951309
   4     142.9442404000      0.2664627624
   5      57.8366425000      0.4202764046
   6      24.3864983000      0.2765077335
   7      10.6622662000      0.0057008815
 S 1 
   1       4.8070437000     -1.0000000000
 S 1 
   1       2.2210770000      1.0000000000
 S 1 
   1       1.0447795000      1.0000000000
 S 1 
   1       0.4968425000      1.0000000000
 S 1 
   1       0.2371384000      1.0000000000
 P 2 
   1      64.2613382000     -0.2731534179
   2      16.3006076000     -0.8168011598
 P 1 
   1       4.3550542000      1.0000000000
 P 1 
   1       1.2019554000      1.0000000000
 P 1 
   1       0.3354196000      1.0000000000
 D 2 
   1       9.2146611000     -0.4661230638
   2       2.8435251000     -0.6600908911
 D 1 
   1       0.9955759000     -1.0000000000
 D 1 
   1       0.3649441000     -1.0000000000
 F 2 
   1       2.6420115000      0.5931563945
   2       0.7345613000      0.5931563945
 G 1 
   1       1.3931000000     -1.0000000000
  end;



           ************************************************************
           *        Program running with 20 parallel MPI-processes    *
           *              working on a common directory               *
           ************************************************************
------------------------------------------------------------------------------
                             ORCA STARTUP CALCULATIONS
                           -- RI-GTO INTEGRALS CHOSEN --
------------------------------------------------------------------------------
------------------------------------------------------------------------------
                   ___                                                        
                  /   \      - P O W E R E D   B Y -                         
                 /     \                                                     
                 |  |  |   _    _      __       _____    __    __             
                 |  |  |  | |  | |    /  \     |  _  \  |  |  /  |          
                  \  \/   | |  | |   /    \    | | | |  |  | /  /          
                 / \  \   | |__| |  /  /\  \   | |_| |  |  |/  /          
                |  |  |   |  __  | /  /__\  \  |    /   |      \           
                |  |  |   | |  | | |   __   |  |    \   |  |\   \          
                \     /   | |  | | |  |  |  |  | |\  \  |  | \   \       
                 \___/    |_|  |_| |__|  |__|  |_| \__\ |__|  \__/        
                                                                              
                      - O R C A' S   B I G   F R I E N D -                    
                                      &                                       
                       - I N T E G R A L  F E E D E R -                       
                                                                              
 v1 FN, 2020, v2 2021, v3 2022-2024                                           
------------------------------------------------------------------------------


----------------------
SHARK INTEGRAL PACKAGE
----------------------

Number of atoms                             ...      6
Number of basis functions                   ...    144
Number of shells                            ...     60
Maximum angular momentum                    ...      2
Integral batch strategy                     ... SHARK/LIBINT Hybrid
RI-J (if used) integral strategy            ... SPLIT-RIJ (Revised 2003 algorithm where possible)
Printlevel                                  ...      1
Contraction scheme used                     ... SEGMENTED contraction
Prescreening option                         ... SCHWARTZ
   Thresh                                   ... 2.500e-11
   Tcut                                     ... 2.500e-12
   Tpresel                                  ... 2.500e-12 
Coulomb Range Separation                    ... NOT USED
Exchange Range Separation                   ... NOT USED
Multipole approximations                    ... NOT USED
Finite Nucleus Model                        ... NOT USED
CABS basis                                  ... NOT available
Auxiliary Coulomb fitting basis             ... AVAILABLE
   # of basis functions in Aux-J            ...    294
   # of shells in Aux-J                     ...     90
   Maximum angular momentum in Aux-J        ...      4
Auxiliary J/K fitting basis                 ... NOT available
Auxiliary Correlation fitting basis         ... NOT available
Auxiliary 'external' fitting basis          ... NOT available

Checking pre-screening integrals            ... done (  0.0 sec) Dimension = 60
Check shell pair data                       ... done (  0.0 sec)
Shell pair information
Shell pair cut-off parameter TPreSel        ...   2.5e-12
Total number of shell pairs                 ...      1830
Shell pairs after pre-screening             ...      1710
Total number of primitive shell pairs       ...      6687
Primitive shell pairs kept                  ...      4712
          la=0 lb=0:    403 shell pairs
          la=1 lb=0:    520 shell pairs
          la=1 lb=1:    169 shell pairs
          la=2 lb=0:    330 shell pairs
          la=2 lb=1:    212 shell pairs
          la=2 lb=2:     76 shell pairs

Calculating one electron integrals          ... done (  0.0 sec)
Calculating RI/J V-Matrix + Cholesky decomp.... done (  0.0 sec)
Calculating Nuclear repulsion               ... done (  0.0 sec) ENN=    208.908893547659 Eh

Diagonalization of the overlap matrix:
Smallest eigenvalue                        ... 5.192e-04
Time for diagonalization                   ...    0.001 sec
Threshold for overlap eigenvalues          ... 1.000e-07
Number of eigenvalues below threshold      ... 0
Time for construction of square roots      ...    0.001 sec
Total time needed                          ...    0.004 sec

-------------------
DFT GRID GENERATION
-------------------

General Integration Accuracy     IntAcc      ... 4.388
Radial Grid Type                 RadialGrid  ... OptM3 with GC (2021)
Angular Grid (max. ang.)         AngularGrid ... 4 (Lebedev-302)
Angular grid pruning method      GridPruning ... 4 (adaptive)
Weight generation scheme         WeightScheme... mBecke (2022)
Basis function cutoff            BFCut       ... 1.0000e-11
Integration weight cutoff        WCut        ... 1.0000e-14
Partially contracted basis set               ... off
Rotationally invariant grid construction     ... off
Angular grids for H and He will be reduced by one unit

Total number of grid points                  ...    36616
Total number of batches                      ...      576
Average number of points per batch           ...       63
Average number of grid points per atom       ...     6103

--------------------
COSX GRID GENERATION
--------------------

GRIDX 1
-------
General Integration Accuracy     IntAcc      ... 3.816
Radial Grid Type                 RadialGrid  ... OptM3 with GC (2021)
Angular Grid (max. ang.)         AngularGrid ... 1 (Lebedev-50)
Angular grid pruning method      GridPruning ... 4 (adaptive)
Weight generation scheme         WeightScheme... mBecke (2022)
Basis function cutoff            BFCut       ... 1.0000e-11
Integration weight cutoff        WCut        ... 1.0000e-14
Partially contracted basis set               ... on
Rotationally invariant grid construction     ... off
Angular grids for H and He will be reduced by one unit

Total number of grid points                  ...     4602
Total number of batches                      ...       40
Average number of points per batch           ...      115
Average number of grid points per atom       ...      767
UseSFitting                                  ... on

GRIDX 2
-------
General Integration Accuracy     IntAcc      ... 4.020
Radial Grid Type                 RadialGrid  ... OptM3 with GC (2021)
Angular Grid (max. ang.)         AngularGrid ... 2 (Lebedev-110)
Angular grid pruning method      GridPruning ... 4 (adaptive)
Weight generation scheme         WeightScheme... mBecke (2022)
Basis function cutoff            BFCut       ... 1.0000e-11
Integration weight cutoff        WCut        ... 1.0000e-14
Partially contracted basis set               ... on
Rotationally invariant grid construction     ... off
Angular grids for H and He will be reduced by one unit

Total number of grid points                  ...    11134
Total number of batches                      ...       92
Average number of points per batch           ...      121
Average number of grid points per atom       ...     1856
UseSFitting                                  ... on

GRIDX 3
-------
General Integration Accuracy     IntAcc      ... 4.338
Radial Grid Type                 RadialGrid  ... OptM3 with GC (2021)
Angular Grid (max. ang.)         AngularGrid ... 3 (Lebedev-194)
Angular grid pruning method      GridPruning ... 4 (adaptive)
Weight generation scheme         WeightScheme... mBecke (2022)
Basis function cutoff            BFCut       ... 1.0000e-11
Integration weight cutoff        WCut        ... 1.0000e-14
Partially contracted basis set               ... on
Rotationally invariant grid construction     ... off
Angular grids for H and He will be reduced by one unit

Total number of grid points                  ...    24862
Total number of batches                      ...      196
Average number of points per batch           ...      126
Average number of grid points per atom       ...     4144
UseSFitting                                  ... on
Initializing property integral containers    ... done (  0.0 sec)

SHARK setup successfully completed in   0.5 seconds

Maximum memory used throughout the entire STARTUP-calculation: 11.9 MB


           ************************************************************
           *        Program running with 20 parallel MPI-processes    *
           *              working on a common directory               *
           ************************************************************
-------------------------------------------------------------------------------
                                 ORCA GUESS
                   Start orbitals & Density for SCF / CASSCF
-------------------------------------------------------------------------------

------------
SCF SETTINGS
------------
Hamiltonian:
 Density Functional     Method          .... DFT(GTOs)
 Exchange Functional    Exchange        .... B88
   X-Alpha parameter    XAlpha          ....  0.666667
   Becke's b parameter  XBeta           ....  0.004200
 Correlation Functional Correlation     .... LYP
 LDA part of GGA corr.  LDAOpt          .... VWN-5
 Gradients option       PostSCFGGA      .... off
 Hybrid DFT is turned on
   Fraction HF Exchange ScalHFX         ....  0.200000
   Scaling of DF-GGA-X  ScalDFX         ....  0.720000
   Scaling of DF-GGA-C  ScalDFC         ....  0.810000
   Scaling of DF-LDA-C  ScalLDAC        ....  1.000000
   Perturbative correction              ....  0.000000
   NL short-range parameter             ....  4.800000
 RI-approximation to the Coulomb term is turned on
   Number of AuxJ basis functions       .... 294
   RIJ-COSX (HFX calculated with COS-X)).... on


General Settings:
 Integral files         IntName         .... D:\hty\creat\code\github\orcacal\Goble\..\Test\ORCA_cal\ORCA_structure\Oxalic_acid_1\input
 Hartree-Fock type      HFTyp           .... RHF
 Total Charge           Charge          ....    0
 Multiplicity           Mult            ....    1
 Number of Electrons    NEL             ....   44
 Basis Dimension        Dim             ....  144
 Nuclear Repulsion      ENuc            ....    208.9088935477 Eh

Convergence Acceleration:
 AO-DIIS                CNVDIIS         .... on
   Start iteration      DIISMaxIt       ....    12
   Startup error        DIISStart       ....  0.200000
   # of expansion vecs  DIISMaxEq       ....     5
   Bias factor          DIISBfac        ....   1.050
   Max. coefficient     DIISMaxC        ....  10.000
 MO-DIIS                CNVKDIIS        .... off
 Trust-Rad. Augm. Hess. CNVTRAH         .... auto
   Auto Start mean grad. ratio tolernc. ....  1.125000
   Auto Start start iteration           ....    50
   Auto Start num. interpolation iter.  ....    10
   Max. Number of Micro iterations      ....    24
   Max. Number of Macro iterations      .... Maxiter - #DIIS iter
   Number of Davidson start vectors     ....     2
   Converg. threshold    (grad. norm)   ....   1.000e-05
   Grad. Scal. Fac. for Micro threshold ....   0.100
   Minimum threshold for Micro iter.    ....   1.000e-02
   NR start threshold (gradient norm)   ....   1.000e-04
   Initial trust radius                 ....   0.400
   Minimum AH scaling param. (alpha)    ....   1.000
   Maximum AH scaling param. (alpha)    .... 1000.000
   Quad. conv. algorithm                .... NR
   White noise on init. David. guess    .... on
   Maximum white noise                  ....   0.010
   Pseudo random numbers                .... off
   Inactive MOs                         .... canonical
   Orbital update algorithm             .... Taylor
   Preconditioner                       .... Diag
   Full preconditioner red. dimension   ....   250
 SOSCF                  CNVSOSCF        .... on
   Start iteration      SOSCFMaxIt      ....   150
   Startup grad/error   SOSCFStart      ....  0.003300
   Hessian update       SOSCFHessUp     .... L-BFGS
 Level Shifting         CNVShift        .... on
   Level shift para.    LevelShift      ....    0.2500
   Turn off err/grad.   ShiftErr        ....    0.0010
 Zerner damping         CNVZerner       .... off
 Static damping         CNVDamp         .... on
   Fraction old density DampFac         ....    0.7000
   Max. Damping (<1)    DampMax         ....    0.9800
   Min. Damping (>=0)   DampMin         ....    0.0000
   Turn off err/grad.   DampErr         ....    0.1000

SCF Procedure:
 Maximum # iterations   MaxIter         ....   125
 SCF integral mode      SCFMode         .... Direct
   Integral package                     .... SHARK and LIBINT hybrid scheme
 Reset frequency        DirectResetFreq ....    20
 Integral Threshold     Thresh          ....  2.500e-11 Eh
 Primitive CutOff       TCut            ....  2.500e-12 Eh

Convergence Tolerance:
 Convergence Check Mode ConvCheckMode   .... Total+1el-Energy
 Convergence forced     ConvForced      .... 0
 Energy Change          TolE            ....  1.000e-08 Eh
 1-El. energy change                    ....  1.000e-05 Eh
 Orbital Gradient       TolG            ....  1.000e-05
 Orbital Rotation angle TolX            ....  1.000e-05
 DIIS Error             TolErr          ....  5.000e-07

------------------------------
INITIAL GUESS: MODEL POTENTIAL
------------------------------
Loading Hartree-Fock densities                     ... done
Calculating cut-offs                               ... done
Initializing the effective Hamiltonian             ... done
Setting up the integral package (SHARK)            ... done
Starting the Coulomb interaction                   ... done (   0.0 sec)
Making the grid                                    ... done (   0.1 sec)
Mapping shells                                     ... done
Starting the XC term evaluation                    ... done (   0.0 sec)
  promolecular density results
     # of electrons  =     43.998785278
     EX              =    -42.934784085
     EC              =     -1.586041805
     EX+EC           =    -44.520825890
Transforming the Hamiltonian                       ... done (   0.0 sec)
Diagonalizing the Hamiltonian                      ... done (   0.0 sec)
Back transforming the eigenvectors                 ... done (   0.0 sec)
Now organizing SCF variables                       ... done
                      ------------------
                      INITIAL GUESS DONE (   0.2 sec)
                      ------------------
----------------------
INITIAL GUESS ORBITALS
----------------------
                      0         1         2         3         4         5   
                 -18.99185 -18.99184 -18.96562 -18.96561 -10.08797 -10.08780
                   2.00000   2.00000   2.00000   2.00000   2.00000   2.00000
                  --------  --------  --------  --------  --------  --------
  0O   1s         0.000108 -0.000111 -0.297951 -0.317774  0.000007  0.000011
  0O   2s         0.000102 -0.000106 -0.436741 -0.465854  0.000132  0.000071
  0O   3s         0.000460 -0.000513 -0.026132 -0.027344 -0.001318 -0.000599
  0O   4s        -0.001087  0.002294  0.021305  0.020756  0.002839  0.000669
  0O   5s        -0.001664 -0.004013 -0.010081 -0.012793 -0.004227 -0.005562
  0O   1pz        0.000000  0.000000 -0.000000 -0.000000 -0.000000 -0.000000
  0O   1px       -0.000131  0.000007  0.000559  0.000405  0.000200 -0.000028
  0O   1py       -0.000129 -0.000075  0.000772  0.000760  0.000233  0.000171
  0O   2pz       -0.000000  0.000000  0.000000  0.000000  0.000000  0.000000
  0O   2px        0.000911 -0.000195 -0.002275 -0.001119 -0.001020  0.000450
  0O   2py        0.000642 -0.000061 -0.002861 -0.002316 -0.000993 -0.000287
  0O   3pz        0.000000  0.000000 -0.000000 -0.000000 -0.000000 -0.000000
  0O   3px        0.000948  0.000944  0.000891  0.000533 -0.000232  0.000766
  0O   3py       -0.000232  0.000119  0.001233  0.001335  0.002188  0.002587
  0O   1dz2      -0.000060 -0.000067  0.000059  0.000093 -0.000004 -0.000003
  0O   1dxz       0.000000  0.000000  0.000000  0.000000  0.000000  0.000000
  0O   1dyz      -0.000000 -0.000000  0.000000  0.000000  0.000000  0.000000
  0O   1dx2y2     0.000039  0.000002  0.000050  0.000082 -0.000033  0.000074
  0O   1dxy       0.000029 -0.000001 -0.000169 -0.000146 -0.000141 -0.000063
  0O   2dz2       0.000317  0.000229 -0.000316 -0.000339 -0.000342 -0.000176
  0O   2dxz       0.000000 -0.000000 -0.000000 -0.000000 -0.000000 -0.000000
  0O   2dyz       0.000000  0.000000 -0.000000 -0.000000 -0.000000 -0.000000
  0O   2dx2y2    -0.000239 -0.000002 -0.000149 -0.000353 -0.000016 -0.000597
  0O   2dxy      -0.000273  0.000028  0.000815  0.000536  0.001137  0.000578
  1O   1s        -0.000108 -0.000111  0.317780 -0.297945  0.000007 -0.000011
  1O   2s        -0.000102 -0.000106  0.465810 -0.436788  0.000132 -0.000071
  1O   3s        -0.000460 -0.000513  0.027837 -0.025606 -0.001319  0.000596
  1O   4s         0.001085  0.002295 -0.022596  0.019342  0.002840 -0.000664
  1O   5s         0.001668 -0.004012  0.010884 -0.012118 -0.004237  0.005555
  1O   1pz        0.000000 -0.000000 -0.000000  0.000000  0.000000 -0.000000
  1O   1px       -0.000131 -0.000007  0.000583 -0.000368 -0.000200 -0.000029
  1O   1py       -0.000129  0.000075  0.000820 -0.000709 -0.000233  0.000171
  1O   2pz       -0.000000 -0.000000  0.000000 -0.000000 -0.000000 -0.000000
  1O   2px        0.000910  0.000196 -0.002342  0.000971  0.001019  0.000452
  1O   2py        0.000642  0.000061 -0.003004  0.002127  0.000994 -0.000285
  1O   3pz       -0.000000  0.000000 -0.000000  0.000000  0.000000 -0.000000
  1O   3px        0.000949 -0.000944  0.000923 -0.000475  0.000231  0.000767
  1O   3py       -0.000232 -0.000119  0.001316 -0.001253 -0.002192  0.002583
  1O   1dz2       0.000060 -0.000067 -0.000065  0.000089 -0.000004  0.000003
  1O   1dxz       0.000000 -0.000000 -0.000000  0.000000  0.000000 -0.000000
  1O   1dyz       0.000000 -0.000000 -0.000000  0.000000 -0.000000 -0.000000
  1O   1dx2y2    -0.000039  0.000002 -0.000055  0.000079 -0.000033 -0.000074
  1O   1dxy      -0.000029 -0.000001  0.000178 -0.000135 -0.000141  0.000063
  1O   2dz2      -0.000317  0.000229  0.000337 -0.000318 -0.000342  0.000175
  1O   2dxz      -0.000000  0.000000  0.000000 -0.000000 -0.000000  0.000000
  1O   2dyz      -0.000000  0.000000  0.000000 -0.000000 -0.000000  0.000000
  1O   2dx2y2     0.000239 -0.000002  0.000171 -0.000343 -0.000017  0.000597
  1O   2dxy       0.000273  0.000028 -0.000847  0.000482  0.001138 -0.000576
  2O   1s         0.307869  0.308155  0.000100 -0.000096  0.000035  0.000039
  2O   2s         0.451230  0.451716  0.000204 -0.000197  0.000205  0.000140
  2O   3s         0.027701  0.027065 -0.000484  0.000495 -0.002027 -0.001175
  2O   4s        -0.025268 -0.021956  0.001652 -0.002557  0.005428  0.002203
  2O   5s         0.009588  0.010943  0.001127  0.004089 -0.003825 -0.005812
  2O   1pz       -0.000000 -0.000000 -0.000000  0.000000  0.000000  0.000000
  2O   1px       -0.000753 -0.000602  0.000108  0.000014  0.000256  0.000027
  2O   1py        0.001148  0.001097 -0.000102 -0.000085 -0.000336 -0.000275
  2O   2pz        0.000000  0.000000  0.000000 -0.000000 -0.000000 -0.000000
  2O   2px        0.003051  0.001661 -0.000952  0.000072 -0.002071 -0.000214
  2O   2py       -0.004147 -0.003235  0.000612 -0.000090  0.002584  0.001666
  2O   3pz       -0.000000 -0.000000 -0.000000  0.000000  0.000000  0.000000
  2O   3px       -0.000700 -0.000033 -0.000976 -0.001057 -0.000625  0.000599
  2O   3py        0.000653  0.000538 -0.000406 -0.000295 -0.002094 -0.002561
  2O   1dz2      -0.000085 -0.000134  0.000040  0.000069 -0.000044 -0.000010
  2O   1dxz       0.000000  0.000000 -0.000000 -0.000000 -0.000000 -0.000000
  2O   1dyz      -0.000000 -0.000000  0.000000  0.000000 -0.000000  0.000000
  2O   1dx2y2    -0.000107 -0.000109 -0.000034 -0.000023 -0.000022  0.000071
  2O   1dxy      -0.000215 -0.000207  0.000015  0.000001  0.000134  0.000078
  2O   2dz2       0.000396  0.000490 -0.000239 -0.000257 -0.000556 -0.000486
  2O   2dxz      -0.000000 -0.000000  0.000000  0.000000  0.000000  0.000000
  2O   2dyz       0.000000  0.000000 -0.000000 -0.000000 -0.000000 -0.000000
  2O   2dx2y2     0.000333  0.000442  0.000234  0.000113 -0.000355 -0.000966
  2O   2dxy       0.000968  0.000761 -0.000209 -0.000015 -0.001701 -0.001159
  3O   1s        -0.308162  0.307862 -0.000093 -0.000102  0.000035 -0.000039
  3O   2s        -0.451659  0.451286 -0.000191 -0.000209  0.000205 -0.000139
  3O   3s        -0.027727  0.027039  0.000451  0.000525 -0.002029  0.001172
  3O   4s         0.025289 -0.021932 -0.001484 -0.002658  0.005432 -0.002194
  3O   5s        -0.009598  0.010934 -0.001388  0.004008 -0.003836  0.005805
  3O   1pz       -0.000000  0.000000  0.000000 -0.000000 -0.000000  0.000000
  3O   1px       -0.000754  0.000601  0.000109 -0.000007 -0.000256  0.000026
  3O   1py        0.001149 -0.001096 -0.000107  0.000078  0.000337 -0.000274
  3O   2pz        0.000000 -0.000000 -0.000000  0.000000  0.000000 -0.000000
  3O   2px        0.003053 -0.001658 -0.000945 -0.000133  0.002071 -0.000210
  3O   2py       -0.004150  0.003231  0.000605  0.000129 -0.002587  0.001662
  3O   3pz       -0.000000 -0.000000  0.000000 -0.000000 -0.000000  0.000000
  3O   3px       -0.000700  0.000032 -0.001042  0.000992  0.000624  0.000600
  3O   3py        0.000653 -0.000537 -0.000425  0.000268  0.002098 -0.002557
  3O   1dz2       0.000085 -0.000134 -0.000045  0.000066 -0.000044  0.000009
  3O   1dxz      -0.000000  0.000000 -0.000000  0.000000 -0.000000  0.000000
  3O   1dyz       0.000000 -0.000000 -0.000000  0.000000 -0.000000 -0.000000
  3O   1dx2y2     0.000107 -0.000109  0.000036 -0.000021 -0.000022 -0.000071
  3O   1dxy       0.000215 -0.000207 -0.000015 -0.000000  0.000134 -0.000078
  3O   2dz2      -0.000396  0.000490  0.000255 -0.000241 -0.000557  0.000485
  3O   2dxz       0.000000 -0.000000  0.000000 -0.000000  0.000000 -0.000000
  3O   2dyz       0.000000  0.000000  0.000000 -0.000000 -0.000000  0.000000
  3O   2dx2y2    -0.000333  0.000442 -0.000240  0.000098 -0.000357  0.000966
  3O   2dxy      -0.000969  0.000760  0.000210 -0.000001 -0.001703  0.001156
  4C   1s         0.000015  0.000031 -0.000017 -0.000033 -0.330129 -0.330750
  4C   2s        -0.000090 -0.000173  0.000093  0.000174 -0.428823 -0.429379
  4C   3s        -0.000526  0.000602  0.000546 -0.000282 -0.030494 -0.034632
  4C   4s         0.001460  0.003572  0.001197 -0.001268  0.016466  0.042625
  4C   5s        -0.000700 -0.002663 -0.000292  0.002892 -0.000500 -0.015832
  4C   1pz        0.000000  0.000000  0.000000  0.000000 -0.000000 -0.000000
  4C   1px        0.000172  0.000153 -0.000038 -0.000034 -0.000213 -0.000060
  4C   1py       -0.000450 -0.000358 -0.000104 -0.000146  0.000913  0.000893
  4C   2pz        0.000000  0.000000  0.000000  0.000000 -0.000000  0.000000
  4C   2px        0.008118  0.002158 -0.006788 -0.001272 -0.000784 -0.011041
  4C   2py       -0.004631 -0.003637 -0.002165 -0.002001  0.001646  0.000723
  4C   3pz       -0.000000 -0.000000 -0.000000 -0.000000 -0.000000 -0.000000
  4C   3px       -0.002340 -0.001740  0.003046  0.002318  0.003846  0.007983
  4C   3py        0.003055  0.007542  0.002672  0.008196  0.000011 -0.000083
  4C   1dz2      -0.000087 -0.000193  0.000100  0.000230  0.001184  0.001236
  4C   1dxz       0.000000  0.000000  0.000000  0.000000 -0.000000 -0.000000
  4C   1dyz      -0.000000 -0.000000  0.000000  0.000000  0.000000  0.000000
  4C   1dx2y2    -0.000042 -0.000107  0.000071  0.000110  0.000448  0.000335
  4C   1dxy      -0.000112 -0.000153 -0.000110 -0.000192  0.000421  0.000385
  4C   2dz2      -0.001743 -0.000672  0.001144  0.000301 -0.000745 -0.003607
  4C   2dxz       0.000000  0.000000  0.000000  0.000000 -0.000000 -0.000000
  4C   2dyz      -0.000000 -0.000000  0.000000  0.000000  0.000000 -0.000000
  4C   2dx2y2    -0.004858 -0.000847  0.004237  0.000624  0.002909  0.002367
  4C   2dxy      -0.002220 -0.002044 -0.001536 -0.002175  0.000290  0.000299
  5C   1s        -0.000015  0.000031  0.000019 -0.000032 -0.330702  0.330177
  5C   2s         0.000090 -0.000173 -0.000104  0.000168 -0.429568  0.428635
  5C   3s         0.000526  0.000603 -0.000527 -0.000317 -0.030554  0.034579
  5C   4s        -0.001464  0.003570 -0.001112 -0.001343  0.016540 -0.042596
  5C   5s         0.000703 -0.002662  0.000106  0.002904 -0.000527  0.015831
  5C   1pz        0.000000 -0.000000  0.000000 -0.000000 -0.000000  0.000000
  5C   1px        0.000172 -0.000153 -0.000041  0.000031  0.000213 -0.000059
  5C   1py       -0.000450  0.000358 -0.000113  0.000139 -0.000914  0.000892
  5C   2pz       -0.000000 -0.000000  0.000000 -0.000000  0.000000  0.000000
  5C   2px        0.008120 -0.002150 -0.006855  0.000832  0.000803 -0.011040
  5C   2py       -0.004634  0.003633 -0.002289  0.001858 -0.001648  0.000720
  5C   3pz       -0.000000  0.000000 -0.000000  0.000000  0.000000 -0.000000
  5C   3px       -0.002342  0.001738  0.003189 -0.002117 -0.003860  0.007976
  5C   3py        0.003062 -0.007539  0.003194 -0.008007 -0.000011 -0.000083
  5C   1dz2       0.000087 -0.000193 -0.000115  0.000223  0.001187 -0.001234
  5C   1dxz       0.000000 -0.000000 -0.000000  0.000000  0.000000 -0.000000
  5C   1dyz       0.000000 -0.000000 -0.000000  0.000000  0.000000 -0.000000
  5C   1dx2y2     0.000042 -0.000107 -0.000078  0.000105  0.000449 -0.000335
  5C   1dxy       0.000112 -0.000153  0.000122 -0.000185  0.000422 -0.000384
  5C   2dz2       0.001743 -0.000670 -0.001161  0.000227 -0.000751  0.003606
  5C   2dxz      -0.000000  0.000000 -0.000000  0.000000 -0.000000  0.000000
  5C   2dyz       0.000000  0.000000 -0.000000  0.000000  0.000000  0.000000
  5C   2dx2y2     0.004859 -0.000843 -0.004268  0.000350  0.002914 -0.002362
  5C   2dxy       0.002222 -0.002041  0.001673 -0.002072  0.000291 -0.000298
                      6         7         8         9        10        11   
                  -1.10525  -1.08729  -0.99345  -0.98114  -0.67539  -0.56379
                   2.00000   2.00000   2.00000   2.00000   2.00000   2.00000
                  --------  --------  --------  --------  --------  --------
  0O   1s         0.025710  0.020121  0.067759  0.065553  0.023289  0.020594
  0O   2s         0.059813  0.046763  0.158195  0.153169  0.054896  0.048690
  0O   3s        -0.088266 -0.068117 -0.237520 -0.231461 -0.087791 -0.079881
  0O   4s        -0.115240 -0.095135 -0.321860 -0.308211 -0.112937 -0.099361
  0O   5s        -0.036480 -0.034323 -0.112310 -0.107640 -0.064901 -0.062144
  0O   1pz       -0.000001 -0.000000 -0.000001 -0.000001  0.000001  0.000002
  0O   1px        0.015094  0.006493  0.034139  0.031334 -0.065615 -0.044484
  0O   1py        0.031058  0.026422  0.049978  0.045559 -0.027976 -0.127433
  0O   2pz       -0.000000 -0.000000 -0.000001 -0.000001  0.000001  0.000002
  0O   2px        0.013690  0.009839  0.033021  0.028893 -0.050595 -0.036840
  0O   2py        0.026633  0.024887  0.049977  0.044062 -0.019265 -0.099977
  0O   3pz       -0.000000 -0.000000 -0.000000 -0.000000  0.000000  0.000001
  0O   3px        0.002661  0.002694  0.005311  0.004316 -0.018755 -0.016828
  0O   3py        0.004691  0.005182  0.007656  0.006662 -0.008948 -0.044437
  0O   1dz2       0.000884  0.000575  0.001668  0.001510 -0.000782 -0.001291
  0O   1dxz       0.000000  0.000000  0.000000  0.000000 -0.000000 -0.000000
  0O   1dyz       0.000000  0.000000  0.000000  0.000000 -0.000000 -0.000000
  0O   1dx2y2     0.000916  0.001146  0.001080  0.001009  0.000924 -0.001974
  0O   1dxy      -0.001180 -0.000675 -0.002558 -0.002395  0.001691  0.001608
  0O   2dz2       0.003808  0.003551  0.005717  0.004873 -0.001010 -0.004590
  0O   2dxz       0.000000  0.000000  0.000000  0.000000 -0.000000 -0.000000
  0O   2dyz       0.000000  0.000000  0.000000  0.000000 -0.000000 -0.000000
  0O   2dx2y2     0.003279  0.003050  0.004413  0.003811  0.003834 -0.005081
  0O   2dxy      -0.004046 -0.003718 -0.009470 -0.008731  0.005235  0.005032
  1O   1s         0.025712 -0.020120 -0.067763  0.065548  0.023289 -0.020595
  1O   2s         0.059816 -0.046762 -0.158205  0.153157  0.054896 -0.048691
  1O   3s        -0.088271  0.068115  0.237536 -0.231443 -0.087790  0.079883
  1O   4s        -0.115247  0.095133  0.321881 -0.308187 -0.112936  0.099364
  1O   5s        -0.036483  0.034322  0.112317 -0.107631 -0.064901  0.062145
  1O   1pz        0.000001 -0.000001 -0.000002  0.000002 -0.000001  0.000004
  1O   1px       -0.015095  0.006493  0.034142 -0.031333  0.065615 -0.044486
  1O   1py       -0.031060  0.026422  0.049981 -0.045555  0.027975 -0.127436
  1O   2pz        0.000001 -0.000001 -0.000002  0.000002 -0.000001  0.000003
  1O   2px       -0.013691  0.009839  0.033024 -0.028891  0.050596 -0.036841
  1O   2py       -0.026635  0.024887  0.049980 -0.044058  0.019264 -0.099980
  1O   3pz        0.000000 -0.000000 -0.000000  0.000000 -0.000000  0.000001
  1O   3px       -0.002661  0.002694  0.005312 -0.004316  0.018756 -0.016829
  1O   3py       -0.004692  0.005182  0.007656 -0.006662  0.008947 -0.044439
  1O   1dz2       0.000884 -0.000575 -0.001669  0.001510 -0.000782  0.001291
  1O   1dxz       0.000000 -0.000000 -0.000000  0.000000 -0.000000  0.000000
  1O   1dyz       0.000000 -0.000000 -0.000000  0.000000 -0.000000  0.000000
  1O   1dx2y2     0.000916 -0.001146 -0.001080  0.001009  0.000924  0.001974
  1O   1dxy      -0.001180  0.000675  0.002559 -0.002395  0.001691 -0.001608
  1O   2dz2       0.003809 -0.003551 -0.005717  0.004873 -0.001009  0.004590
  1O   2dxz       0.000000 -0.000000 -0.000000  0.000000 -0.000000  0.000000
  1O   2dyz       0.000000 -0.000000 -0.000001  0.000000  0.000000  0.000000
  1O   2dx2y2     0.003279 -0.003050 -0.004413  0.003810  0.003835  0.005081
  1O   2dxy      -0.004046  0.003718  0.009471 -0.008731  0.005235 -0.005032
  2O   1s         0.058372  0.064066 -0.024632 -0.034986  0.027766  0.032759
  2O   2s         0.136201  0.149458 -0.057671 -0.081946  0.065488  0.077253
  2O   3s        -0.205508 -0.224294  0.088743  0.126431 -0.104937 -0.123504
  2O   4s        -0.265721 -0.305018  0.117747  0.166113 -0.137725 -0.159489
  2O   5s        -0.089245 -0.103239  0.041257  0.060575 -0.077173 -0.101953
  2O   1pz        0.000001  0.000001 -0.000000 -0.000001 -0.000000 -0.000004
  2O   1px        0.041234  0.041108 -0.023729 -0.022674 -0.088801 -0.092529
  2O   1py       -0.073090 -0.078276  0.014035  0.025797  0.030668  0.224376
  2O   2pz        0.000001  0.000001 -0.000000 -0.000000 -0.000000 -0.000003
  2O   2px        0.034260  0.038730 -0.018620 -0.018982 -0.066963 -0.070805
  2O   2py       -0.061229 -0.069805  0.013933  0.023565  0.019363  0.169436
  2O   3pz        0.000000  0.000000 -0.000000 -0.000000 -0.000000 -0.000001
  2O   3px        0.007144  0.007324 -0.002583 -0.003084 -0.023891 -0.031338
  2O   3py       -0.012292 -0.013844  0.002169  0.004791  0.010171  0.074728
  2O   1dz2       0.002714  0.002896 -0.000878 -0.001102 -0.000993 -0.003063
  2O   1dxz      -0.000000 -0.000000  0.000000  0.000000  0.000000  0.000000
  2O   1dyz       0.000000  0.000000 -0.000000 -0.000000  0.000000 -0.000000
  2O   1dx2y2     0.002353  0.002672  0.000168 -0.000564  0.001610 -0.003581
  2O   1dxy       0.003867  0.004070 -0.001723 -0.002000 -0.002444 -0.004001
  2O   2dz2       0.006031  0.006361 -0.000917 -0.001536 -0.001216 -0.005548
  2O   2dxz      -0.000000 -0.000000  0.000000  0.000000  0.000000  0.000000
  2O   2dyz       0.000000  0.000000 -0.000000 -0.000000  0.000000 -0.000000
  2O   2dx2y2     0.005396  0.006053  0.000418 -0.000781  0.005544 -0.007033
  2O   2dxy       0.008582  0.009412 -0.003524 -0.004888 -0.006605 -0.006755
  3O   1s         0.058374 -0.064063  0.024635 -0.034985  0.027766 -0.032760
  3O   2s         0.136207 -0.149451  0.057678 -0.081944  0.065488 -0.077254
  3O   3s        -0.205517  0.224283 -0.088754  0.126427 -0.104936  0.123505
  3O   4s        -0.265734  0.305004 -0.117762  0.166108 -0.137724  0.159491
  3O   5s        -0.089249  0.103234 -0.041262  0.060574 -0.077173  0.101954
  3O   1pz       -0.000001  0.000001  0.000000  0.000000 -0.000000 -0.000003
  3O   1px       -0.041236  0.041106 -0.023731  0.022673  0.088801 -0.092529
  3O   1py        0.073093 -0.078272  0.014037 -0.025797 -0.030668  0.224379
  3O   2pz       -0.000001  0.000001  0.000000  0.000000 -0.000000 -0.000002
  3O   2px       -0.034262  0.038729 -0.018622  0.018981  0.066963 -0.070805
  3O   2py        0.061232 -0.069802  0.013935 -0.023564 -0.019363  0.169439
  3O   3pz       -0.000000  0.000000  0.000000  0.000000 -0.000000 -0.000001
  3O   3px       -0.007144  0.007324 -0.002583  0.003084  0.023891 -0.031338
  3O   3py        0.012293 -0.013843  0.002169 -0.004791 -0.010171  0.074729
  3O   1dz2       0.002714 -0.002896  0.000878 -0.001102 -0.000993  0.003063
  3O   1dxz      -0.000000  0.000000 -0.000000  0.000000  0.000000 -0.000000
  3O   1dyz       0.000000 -0.000000 -0.000000 -0.000000  0.000000  0.000000
  3O   1dx2y2     0.002353 -0.002672 -0.000168 -0.000564  0.001610  0.003581
  3O   1dxy       0.003867 -0.004070  0.001723 -0.002000 -0.002444  0.004001
  3O   2dz2       0.006032 -0.006361  0.000917 -0.001536 -0.001216  0.005549
  3O   2dxz      -0.000000  0.000000 -0.000000  0.000000  0.000000 -0.000000
  3O   2dyz       0.000000 -0.000000 -0.000000  0.000000  0.000000  0.000000
  3O   2dx2y2     0.005396 -0.006053 -0.000418 -0.000781  0.005544  0.007034
  3O   2dxy       0.008582 -0.009411  0.003525 -0.004888 -0.006605  0.006755
  4C   1s         0.045893  0.037404  0.013049  0.010339 -0.056701 -0.040496
  4C   2s         0.094728  0.077490  0.027232  0.021543 -0.120303 -0.086640
  4C   3s        -0.165705 -0.143480 -0.050047 -0.037088  0.212881  0.170356
  4C   4s        -0.048678 -0.027450 -0.025536 -0.030411  0.193778  0.106631
  4C   5s        -0.000156  0.005080  0.003363 -0.003042  0.019744  0.010307
  4C   1pz       -0.000001 -0.000001  0.000002  0.000002  0.000001  0.000000
  4C   1px       -0.040648 -0.069710 -0.026571 -0.005684 -0.188022  0.085532
  4C   1py        0.051717  0.070714 -0.112470 -0.112481  0.004332 -0.037550
  4C   2pz       -0.000000 -0.000000  0.000000  0.000000  0.000001  0.000000
  4C   2px        0.004483  0.009356 -0.006906 -0.002982 -0.111361  0.020491
  4C   2py        0.000574  0.001101 -0.023856 -0.023758  0.002491 -0.004679
  4C   3pz        0.000000  0.000000  0.000000 -0.000000  0.000000 -0.000000
  4C   3px        0.001406  0.001736 -0.002449 -0.000668 -0.012839 -0.015072
  4C   3py       -0.002085 -0.000870 -0.000014  0.000063  0.001024  0.003325
  4C   1dz2       0.010352  0.008834  0.002484  0.001669 -0.006897 -0.005584
  4C   1dxz      -0.000000 -0.000000  0.000000  0.000000 -0.000000  0.000000
  4C   1dyz       0.000000  0.000000  0.000000  0.000000 -0.000000 -0.000000
  4C   1dx2y2     0.004888  0.007594  0.001210 -0.000469  0.008458 -0.003464
  4C   1dxy       0.007020  0.007246 -0.009523 -0.013659  0.001527 -0.003683
  4C   2dz2      -0.000090 -0.006531 -0.000706  0.001637 -0.003468  0.007366
  4C   2dxz       0.000000  0.000000 -0.000000 -0.000000 -0.000000 -0.000000
  4C   2dyz      -0.000000 -0.000000 -0.000000  0.000000 -0.000000  0.000001
  4C   2dx2y2    -0.005198 -0.016352 -0.002830  0.000301  0.004821  0.016235
  4C   2dxy      -0.006398 -0.009176  0.010838  0.007380 -0.000245  0.005130
  5C   1s         0.045895 -0.037402 -0.013049  0.010337 -0.056702  0.040497
  5C   2s         0.094732 -0.077486 -0.027232  0.021540 -0.120303  0.086641
  5C   3s        -0.165712  0.143472  0.050048 -0.037083  0.212882 -0.170357
  5C   4s        -0.048679  0.027448  0.025537 -0.030408  0.193778 -0.106631
  5C   5s        -0.000156 -0.005080 -0.003363 -0.003042  0.019743 -0.010306
  5C   1pz       -0.000000 -0.000000  0.000003 -0.000003 -0.000001 -0.000001
  5C   1px        0.040651 -0.069708 -0.026573  0.005682  0.188022  0.085535
  5C   1py       -0.051720  0.070711 -0.112478  0.112474 -0.004332 -0.037550
  5C   2pz       -0.000000 -0.000000  0.000001 -0.000001 -0.000001 -0.000000
  5C   2px       -0.004484  0.009356 -0.006906  0.002981  0.111361  0.020493
  5C   2py       -0.000574  0.001101 -0.023858  0.023757 -0.002491 -0.004679
  5C   3pz        0.000000 -0.000000  0.000000  0.000000 -0.000000  0.000000
  5C   3px       -0.001406  0.001736 -0.002449  0.000668  0.012838 -0.015072
  5C   3py        0.002085 -0.000869 -0.000014 -0.000063 -0.001024  0.003325
  5C   1dz2       0.010352 -0.008834 -0.002484  0.001669 -0.006897  0.005584
  5C   1dxz       0.000000 -0.000000 -0.000000  0.000000 -0.000000  0.000000
  5C   1dyz       0.000000 -0.000000 -0.000000  0.000000 -0.000000  0.000000
  5C   1dx2y2     0.004888 -0.007594 -0.001210 -0.000470  0.008458  0.003464
  5C   1dxy       0.007020 -0.007246  0.009524 -0.013659  0.001527  0.003683
  5C   2dz2      -0.000090  0.006531  0.000706  0.001637 -0.003468 -0.007366
  5C   2dxz       0.000000 -0.000000  0.000000 -0.000000  0.000000  0.000000
  5C   2dyz      -0.000000  0.000000  0.000000 -0.000000 -0.000000 -0.000001
  5C   2dx2y2    -0.005199  0.016351  0.002829  0.000301  0.004821 -0.016235
  5C   2dxy      -0.006398  0.009175 -0.010839  0.007380 -0.000245 -0.005130
                     12        13        14        15        16        17   
                  -0.54158  -0.52526  -0.49584  -0.49098  -0.45003  -0.40601
                   2.00000   2.00000   2.00000   2.00000   2.00000   2.00000
                  --------  --------  --------  --------  --------  --------
  0O   1s         0.013410 -0.025120  0.019553 -0.000000  0.000000  0.000034
  0O   2s         0.031711 -0.059367  0.046124 -0.000001  0.000000  0.000251
  0O   3s        -0.052150  0.097774 -0.075374  0.000002 -0.000000 -0.001334
  0O   4s        -0.064877  0.117052 -0.092561  0.000002  0.000000 -0.000766
  0O   5s        -0.047978  0.082092 -0.068196  0.000002 -0.000000 -0.006517
  0O   1pz        0.000002 -0.000003  0.000007  0.139805  0.147779 -0.000000
  0O   1px        0.017747  0.139532 -0.132149  0.000004  0.000001  0.197956
  0O   1py       -0.142054  0.177408 -0.202544  0.000007  0.000002 -0.000183
  0O   2pz        0.000002 -0.000002  0.000005  0.112530  0.119103 -0.000000
  0O   2px        0.013532  0.110188 -0.103672  0.000003  0.000000  0.155503
  0O   2py       -0.110244  0.141509 -0.159772  0.000006  0.000001 -0.000285
  0O   3pz        0.000001 -0.000001  0.000003  0.054574  0.058809 -0.000000
  0O   3px        0.009379  0.052437 -0.048902  0.000001  0.000000  0.083729
  0O   3py       -0.051718  0.066145 -0.077085  0.000003  0.000001  0.006044
  0O   1dz2      -0.001078  0.002315 -0.002290  0.000000  0.000000  0.000565
  0O   1dxz      -0.000000  0.000000 -0.000000 -0.001328 -0.000949  0.000000
  0O   1dyz      -0.000000  0.000000 -0.000000 -0.002176 -0.002064 -0.000000
  0O   1dx2y2    -0.002904  0.001071 -0.001596  0.000000  0.000000 -0.001322
  0O   1dxy       0.000693 -0.003565  0.003549 -0.000000 -0.000000 -0.002516
  0O   2dz2      -0.003794  0.006214 -0.005533  0.000000  0.000000  0.000865
  0O   2dxz      -0.000000  0.000000 -0.000000 -0.006027 -0.004346  0.000000
  0O   2dyz      -0.000000  0.000000 -0.000000 -0.010332 -0.009177  0.000000
  0O   2dx2y2    -0.009603  0.003067 -0.004016  0.000000  0.000000 -0.002703
  0O   2dxy       0.001732 -0.010165  0.010104 -0.000000 -0.000000 -0.007406
  1O   1s         0.013410  0.025120  0.019553 -0.000000  0.000000 -0.000034
  1O   2s         0.031712  0.059367  0.046123 -0.000001  0.000000 -0.000251
  1O   3s        -0.052151 -0.097774 -0.075372  0.000002  0.000000  0.001334
  1O   4s        -0.064878 -0.117052 -0.092560  0.000002 -0.000000  0.000767
  1O   5s        -0.047979 -0.082092 -0.068195  0.000002  0.000000  0.006518
  1O   1pz       -0.000004 -0.000007 -0.000004  0.139808 -0.147780 -0.000003
  1O   1px       -0.017743  0.139536  0.132150 -0.000001 -0.000001  0.197961
  1O   1py        0.142057  0.177406  0.202540 -0.000002 -0.000004 -0.000189
  1O   2pz       -0.000003 -0.000005 -0.000003  0.112533 -0.119103 -0.000002
  1O   2px       -0.013529  0.110192  0.103673 -0.000001 -0.000001  0.155507
  1O   2py        0.110246  0.141508  0.159769 -0.000001 -0.000003 -0.000289
  1O   3pz       -0.000001 -0.000003 -0.000002  0.054575 -0.058809 -0.000002
  1O   3px       -0.009378  0.052438  0.048902 -0.000001 -0.000000  0.083732
  1O   3py        0.051719  0.066144  0.077083 -0.000001 -0.000002  0.006041
  1O   1dz2      -0.001078 -0.002315 -0.002290 -0.000000  0.000000 -0.000565
  1O   1dxz       0.000000 -0.000000 -0.000000  0.001328 -0.000949 -0.000000
  1O   1dyz      -0.000000 -0.000000 -0.000000  0.002176 -0.002064 -0.000000
  1O   1dx2y2    -0.002904 -0.001071 -0.001596  0.000000  0.000000  0.001322
  1O   1dxy       0.000693  0.003565  0.003549 -0.000000 -0.000000  0.002516
  1O   2dz2      -0.003794 -0.006214 -0.005533 -0.000000  0.000001 -0.000865
  1O   2dxz      -0.000000 -0.000000 -0.000000  0.006027 -0.004346 -0.000000
  1O   2dyz      -0.000000 -0.000001 -0.000000  0.010332 -0.009177 -0.000000
  1O   2dx2y2    -0.009603 -0.003066 -0.004016 -0.000000  0.000000  0.002703
  1O   2dxy       0.001732  0.010165  0.010104  0.000000 -0.000000  0.007406
  2O   1s         0.022346  0.014704 -0.012219  0.000000  0.000000  0.001351
  2O   2s         0.052600  0.034587 -0.028574  0.000001  0.000000  0.003225
  2O   3s        -0.082771 -0.054498  0.042804 -0.000001 -0.000000 -0.005508
  2O   4s        -0.110963 -0.067212  0.060748 -0.000002  0.000000 -0.004272
  2O   5s        -0.074660 -0.043362  0.036828 -0.000001  0.000000 -0.015276
  2O   1pz       -0.000005 -0.000001  0.000008  0.230537  0.281363 -0.000005
  2O   1px       -0.002026 -0.163238  0.167248 -0.000004  0.000001  0.257611
  2O   1py        0.244801  0.088961 -0.130410  0.000008  0.000006  0.149337
  2O   2pz       -0.000004 -0.000001  0.000006  0.184135  0.223714 -0.000004
  2O   2px        0.001548 -0.125300  0.127824 -0.000003  0.000001  0.203382
  2O   2py        0.185203  0.068563 -0.098267  0.000007  0.000005  0.117207
  2O   3pz       -0.000002 -0.000001  0.000003  0.085838  0.111276 -0.000002
  2O   3px        0.001830 -0.058099  0.061749 -0.000001  0.000000  0.107155
  2O   3py        0.084819  0.033401 -0.046757  0.000003  0.000002  0.058239
  2O   1dz2      -0.002665 -0.002141  0.002364 -0.000000 -0.000000 -0.000262
  2O   1dxz       0.000000  0.000000 -0.000000 -0.002592 -0.002380 -0.000000
  2O   1dyz      -0.000000 -0.000000  0.000000  0.004390  0.004649 -0.000000
  2O   1dx2y2    -0.005296  0.000734  0.000366 -0.000000 -0.000000 -0.003699
  2O   1dxy      -0.002325 -0.004308  0.004568 -0.000000 -0.000000  0.002357
  2O   2dz2      -0.004658 -0.002933  0.002892 -0.000001 -0.000001  0.000123
  2O   2dxz       0.000000  0.000000 -0.000000 -0.009457 -0.008688 -0.000000
  2O   2dyz      -0.000000 -0.000000  0.000000  0.016152  0.015634 -0.000000
  2O   2dx2y2    -0.013291  0.003502 -0.002250 -0.000000 -0.000000 -0.009538
  2O   2dxy      -0.001846 -0.008486  0.009345 -0.000000 -0.000000  0.007106
  3O   1s         0.022345 -0.014704 -0.012219  0.000000 -0.000000 -0.001351
  3O   2s         0.052598 -0.034589 -0.028574  0.000001 -0.000000 -0.003225
  3O   3s        -0.082767  0.054500  0.042804 -0.000001  0.000000  0.005508
  3O   4s        -0.110959  0.067215  0.060748 -0.000002 -0.000000  0.004272
  3O   5s        -0.074657  0.043364  0.036828 -0.000001 -0.000000  0.015276
  3O   1pz        0.000004  0.000001  0.000007  0.230540 -0.281358 -0.000005
  3O   1px        0.002021 -0.163239 -0.167247  0.000008 -0.000004  0.257612
  3O   1py       -0.244796  0.088967  0.130411  0.000000 -0.000004  0.149335
  3O   2pz        0.000003  0.000001  0.000005  0.184138 -0.223710 -0.000004
  3O   2px       -0.001551 -0.125301 -0.127823  0.000006 -0.000003  0.203383
  3O   2py       -0.185199  0.068568  0.098267  0.000000 -0.000004  0.117205
  3O   3pz        0.000001  0.000000  0.000002  0.085839 -0.111274 -0.000002
  3O   3px       -0.001832 -0.058100 -0.061748  0.000003 -0.000001  0.107155
  3O   3py       -0.084817  0.033403  0.046757  0.000000 -0.000002  0.058238
  3O   1dz2      -0.002665  0.002141  0.002364  0.000000 -0.000000  0.000262
  3O   1dxz       0.000000 -0.000000  0.000000  0.002592 -0.002380  0.000000
  3O   1dyz      -0.000000 -0.000000 -0.000000 -0.004390  0.004649  0.000000
  3O   1dx2y2    -0.005296 -0.000733  0.000366  0.000000 -0.000000  0.003699
  3O   1dxy      -0.002325  0.004308  0.004568 -0.000000  0.000000 -0.002357
  3O   2dz2      -0.004658  0.002933  0.002892  0.000000 -0.000000 -0.000123
  3O   2dxz       0.000000 -0.000000  0.000000  0.009457 -0.008688  0.000000
  3O   2dyz      -0.000000 -0.000000 -0.000001 -0.016152  0.015633  0.000000
  3O   2dx2y2    -0.013290 -0.003502 -0.002250  0.000000 -0.000000  0.009538
  3O   2dxy      -0.001846  0.008486  0.009345 -0.000000  0.000000 -0.007106
  4C   1s        -0.014029  0.008478 -0.006052  0.000000  0.000000  0.014404
  4C   2s        -0.029950  0.017914 -0.012686  0.000001  0.000000  0.031197
  4C   3s         0.065190 -0.031354  0.020810 -0.000001 -0.000000 -0.068979
  4C   4s         0.002865 -0.045057  0.039910 -0.000002 -0.000001 -0.002050
  4C   5s        -0.023475 -0.010367  0.008224 -0.000000  0.000000 -0.095381
  4C   1pz       -0.000000  0.000004  0.000002  0.198392  0.154509 -0.000000
  4C   1px        0.195030 -0.030041  0.020794  0.000000  0.000001  0.059191
  4C   1py       -0.033176 -0.184686  0.181270 -0.000001  0.000003 -0.022993
  4C   2pz       -0.000000  0.000002  0.000002  0.143261  0.106484 -0.000000
  4C   2px        0.105370 -0.020591  0.018161  0.000000  0.000000  0.021480
  4C   2py       -0.005543 -0.076059  0.075354  0.000001  0.000002 -0.009322
  4C   3pz       -0.000000  0.000000  0.000001  0.035927  0.037938 -0.000000
  4C   3px        0.000797  0.000533  0.000236  0.000000 -0.000000  0.074367
  4C   3py        0.005457  0.004787 -0.022847  0.000001  0.000001  0.004893
  4C   1dz2      -0.002676 -0.000160  0.000912  0.000000  0.000000  0.000810
  4C   1dxz       0.000000  0.000000 -0.000000  0.002414  0.011167  0.000000
  4C   1dyz      -0.000000 -0.000000 -0.000000 -0.005494 -0.007217  0.000000
  4C   1dx2y2    -0.002504 -0.003901  0.004400  0.000000  0.000000  0.020149
  4C   1dxy      -0.006151 -0.002643  0.013739 -0.000000  0.000000 -0.008074
  4C   2dz2       0.006484  0.000785 -0.000504  0.000000  0.000000 -0.009381
  4C   2dxz      -0.000000 -0.000000  0.000000 -0.001809  0.016928 -0.000000
  4C   2dyz       0.000000 -0.000000 -0.000000 -0.001949 -0.005823  0.000000
  4C   2dx2y2     0.013050 -0.003222  0.002553 -0.000000  0.000000  0.038665
  4C   2dxy       0.005767  0.025821 -0.013159  0.000000  0.000000 -0.004159
  5C   1s        -0.014029 -0.008478 -0.006052  0.000000 -0.000000 -0.014404
  5C   2s        -0.029949 -0.017914 -0.012685  0.000001 -0.000000 -0.031197
  5C   3s         0.065187  0.031353  0.020809 -0.000001  0.000001  0.068979
  5C   4s         0.002864  0.045056  0.039909 -0.000003  0.000001  0.002048
  5C   5s        -0.023474  0.010367  0.008225 -0.000001  0.000000  0.095380
  5C   1pz        0.000002  0.000004  0.000009  0.198394 -0.154506  0.000000
  5C   1px       -0.195030 -0.030037 -0.020793  0.000003 -0.000002  0.059188
  5C   1py        0.033173 -0.184689 -0.181268  0.000009 -0.000003 -0.022993
  5C   2pz        0.000001  0.000002  0.000006  0.143263 -0.106482  0.000000
  5C   2px       -0.105370 -0.020589 -0.018161  0.000002 -0.000001  0.021479
  5C   2py        0.005542 -0.076060 -0.075353  0.000005 -0.000002 -0.009322
  5C   3pz        0.000000 -0.000000  0.000000  0.035928 -0.037938 -0.000001
  5C   3px       -0.000796  0.000533 -0.000236  0.000000 -0.000001  0.074367
  5C   3py       -0.005457  0.004787  0.022847  0.000000 -0.000001  0.004893
  5C   1dz2      -0.002676  0.000160  0.000912  0.000000 -0.000000 -0.000810
  5C   1dxz      -0.000000 -0.000000 -0.000000 -0.002414  0.011167  0.000000
  5C   1dyz      -0.000000 -0.000000 -0.000000  0.005494 -0.007216 -0.000001
  5C   1dx2y2    -0.002503  0.003901  0.004400 -0.000000  0.000000 -0.020150
  5C   1dxy      -0.006151  0.002643  0.013739 -0.000000  0.000000  0.008074
  5C   2dz2       0.006484 -0.000785 -0.000503  0.000000 -0.000000  0.009381
  5C   2dxz      -0.000000  0.000000  0.000000  0.001809  0.016928  0.000001
  5C   2dyz       0.000000  0.000000  0.000000  0.001949 -0.005823 -0.000000
  5C   2dx2y2     0.013050  0.003222  0.002553 -0.000000  0.000000 -0.038665
  5C   2dxy       0.005766 -0.025822 -0.013159  0.000000  0.000000  0.004159
                     18        19        20        21        22        23   
                  -0.37235  -0.36581  -0.36565  -0.34807  -0.34000  -0.16783
                   2.00000   2.00000   2.00000   2.00000   0.00000   0.00000
                  --------  --------  --------  --------  --------  --------
  0O   1s        -0.000000 -0.000000 -0.001303 -0.001525  0.000431 -0.000000
  0O   2s        -0.000000 -0.000001 -0.003234 -0.003882  0.001166 -0.000000
  0O   3s         0.000000  0.000001  0.005966  0.008318 -0.003410  0.000000
  0O   4s         0.000000  0.000002  0.010694  0.005468  0.003064  0.000000
  0O   5s        -0.000000  0.000000  0.001457  0.020144  0.002136 -0.000000
  0O   1pz       -0.311976  0.300302 -0.000049  0.000001 -0.000003  0.174428
  0O   1px        0.000005  0.000045  0.223840 -0.233803 -0.225535 -0.000000
  0O   1py       -0.000010 -0.000040 -0.230181 -0.021275  0.205727  0.000003
  0O   2pz       -0.247976  0.239940 -0.000039  0.000001 -0.000002  0.135786
  0O   2px        0.000004  0.000036  0.179192 -0.183097 -0.181778 -0.000000
  0O   2py       -0.000008 -0.000032 -0.182553 -0.016576  0.160246  0.000002
  0O   3pz       -0.154708  0.146248 -0.000024  0.000000 -0.000001  0.139191
  0O   3px        0.000002  0.000022  0.109402 -0.122665 -0.112515 -0.000000
  0O   3py       -0.000005 -0.000019 -0.110420 -0.008689  0.100450  0.000002
  0O   1dz2      -0.000000 -0.000000 -0.000532 -0.000731  0.000250 -0.000000
  0O   1dxz       0.001241 -0.001230  0.000000 -0.000000 -0.000000  0.001578
  0O   1dyz       0.001890 -0.001703  0.000000 -0.000000  0.000000  0.001910
  0O   1dx2y2    -0.000000 -0.000000 -0.002288 -0.000046  0.001733 -0.000000
  0O   1dxy       0.000000 -0.000000  0.000018  0.001639  0.000168  0.000000
  0O   2dz2      -0.000000  0.000000  0.000046 -0.001942  0.000342 -0.000000
  0O   2dxz       0.006383 -0.004884  0.000001 -0.000000 -0.000000  0.006617
  0O   2dyz       0.008459 -0.008118  0.000001 -0.000000  0.000000  0.007074
  0O   2dx2y2    -0.000000 -0.000002 -0.009381 -0.000406  0.005714 -0.000000
  0O   2dxy       0.000000 -0.000000 -0.000965  0.003880  0.002630  0.000000
  1O   1s         0.000000  0.000000  0.001303 -0.001525  0.000431  0.000000
  1O   2s         0.000000  0.000001  0.003234 -0.003882  0.001167  0.000000
  1O   3s        -0.000000 -0.000001 -0.005966  0.008318 -0.003411 -0.000000
  1O   4s        -0.000000 -0.000002 -0.010694  0.005468  0.003063 -0.000000
  1O   5s         0.000001 -0.000000 -0.001458  0.020144  0.002135 -0.000001
  1O   1pz        0.311986  0.300290 -0.000063 -0.000003  0.000001  0.174428
  1O   1px        0.000010  0.000048  0.223835  0.233800  0.225533  0.000003
  1O   1py        0.000003 -0.000037 -0.230181  0.021272 -0.205732  0.000004
  1O   2pz        0.247983  0.239931 -0.000051 -0.000003  0.000001  0.135786
  1O   2px        0.000008  0.000039  0.179188  0.183095  0.181776  0.000002
  1O   2py        0.000002 -0.000029 -0.182553  0.016573 -0.160250  0.000003
  1O   3pz        0.154713  0.146243 -0.000031 -0.000002  0.000001  0.139191
  1O   3px        0.000005  0.000024  0.109399  0.122664  0.112514  0.000002
  1O   3py        0.000002 -0.000018 -0.110421  0.008687 -0.100453  0.000003
  1O   1dz2      -0.000000 -0.000000  0.000532 -0.000731  0.000250  0.000000
  1O   1dxz       0.001241  0.001230 -0.000000 -0.000000 -0.000000 -0.001578
  1O   1dyz       0.001890  0.001703 -0.000000 -0.000000  0.000000 -0.001910
  1O   1dx2y2     0.000000  0.000000  0.002288 -0.000046  0.001733  0.000000
  1O   1dxy       0.000000  0.000000 -0.000019  0.001639  0.000168 -0.000000
  1O   2dz2      -0.000001 -0.000000 -0.000046 -0.001942  0.000342  0.000001
  1O   2dxz       0.006383  0.004884 -0.000001 -0.000000 -0.000000 -0.006618
  1O   2dyz       0.008459  0.008118 -0.000002 -0.000000  0.000000 -0.007073
  1O   2dx2y2     0.000000  0.000002  0.009381 -0.000406  0.005714  0.000000
  1O   2dxy       0.000000  0.000000  0.000965  0.003880  0.002630 -0.000000
  2O   1s         0.000000  0.000001  0.003819 -0.002349 -0.000766  0.000000
  2O   2s         0.000000  0.000002  0.009381 -0.005855 -0.001964  0.000000
  2O   3s        -0.000000 -0.000004 -0.019216  0.013047  0.005349 -0.000000
  2O   4s        -0.000001 -0.000003 -0.013955  0.006559 -0.005074  0.000000
  2O   5s        -0.000001 -0.000005 -0.022114  0.022709  0.002873 -0.000000
  2O   1pz        0.190247 -0.220081  0.000041  0.000000 -0.000004  0.208017
  2O   1px       -0.000001 -0.000020 -0.105790 -0.247384  0.183535  0.000000
  2O   1py        0.000001 -0.000033 -0.146883 -0.041655  0.156410  0.000004
  2O   2pz        0.149926 -0.175191  0.000033  0.000000 -0.000003  0.165380
  2O   2px       -0.000001 -0.000017 -0.090339 -0.193210  0.149355 -0.000000
  2O   2py        0.000001 -0.000026 -0.114108 -0.035846  0.121072  0.000003
  2O   3pz        0.095844 -0.103614  0.000019  0.000000 -0.000002  0.167422
  2O   3px       -0.000001 -0.000011 -0.056031 -0.125815  0.086633  0.000000
  2O   3py        0.000000 -0.000017 -0.073678 -0.023051  0.072328  0.000003
  2O   1dz2      -0.000000  0.000000  0.000480 -0.000694 -0.000176  0.000000
  2O   1dxz      -0.001185  0.001325 -0.000000  0.000000 -0.000000  0.001932
  2O   1dyz       0.001411 -0.001778  0.000000 -0.000000 -0.000000 -0.002299
  2O   1dx2y2     0.000000  0.000000  0.001673  0.000398 -0.002121  0.000000
  2O   1dxy       0.000000  0.000000  0.000840 -0.001919  0.000426  0.000000
  2O   2dz2      -0.000000  0.000000 -0.000774 -0.001207 -0.000367  0.000000
  2O   2dxz      -0.004457  0.003329 -0.000001  0.000000 -0.000000  0.006169
  2O   2dyz       0.004888 -0.006229  0.000001 -0.000000 -0.000000 -0.006437
  2O   2dx2y2     0.000000  0.000002  0.008408  0.001884 -0.006026  0.000000
  2O   2dxy      -0.000000  0.000000 -0.000114 -0.002963  0.003305  0.000000
  3O   1s        -0.000000 -0.000001 -0.003819 -0.002349 -0.000766  0.000000
  3O   2s        -0.000000 -0.000002 -0.009381 -0.005855 -0.001964  0.000000
  3O   3s         0.000000  0.000004  0.019216  0.013047  0.005349 -0.000000
  3O   4s         0.000001  0.000003  0.013957  0.006559 -0.005074 -0.000000
  3O   5s        -0.000000  0.000004  0.022115  0.022709  0.002874 -0.000001
  3O   1pz       -0.190256 -0.220077  0.000052 -0.000005  0.000006  0.208016
  3O   1px       -0.000005 -0.000025 -0.105787  0.247380 -0.183540  0.000003
  3O   1py       -0.000006 -0.000033 -0.146883  0.041654 -0.156415  0.000004
  3O   2pz       -0.149933 -0.175188  0.000042 -0.000004  0.000005  0.165380
  3O   2px       -0.000004 -0.000021 -0.090337  0.193207 -0.149359  0.000003
  3O   2py       -0.000005 -0.000025 -0.114108  0.035844 -0.121076  0.000003
  3O   3pz       -0.095848 -0.103612  0.000025 -0.000003  0.000003  0.167422
  3O   3px       -0.000003 -0.000013 -0.056030  0.125814 -0.086636  0.000002
  3O   3py       -0.000003 -0.000016 -0.073678  0.023050 -0.072330  0.000004
  3O   1dz2      -0.000000 -0.000000 -0.000480 -0.000694 -0.000176 -0.000000
  3O   1dxz      -0.001185 -0.001325  0.000000  0.000000  0.000000 -0.001932
  3O   1dyz       0.001411  0.001778 -0.000000  0.000000 -0.000000  0.002299
  3O   1dx2y2    -0.000000 -0.000000 -0.001673  0.000398 -0.002121 -0.000000
  3O   1dxy      -0.000000 -0.000000 -0.000840 -0.001919  0.000426  0.000000
  3O   2dz2      -0.000000  0.000000  0.000774 -0.001207 -0.000367  0.000000
  3O   2dxz      -0.004457 -0.003329  0.000001  0.000000  0.000000 -0.006169
  3O   2dyz       0.004889  0.006229 -0.000002  0.000000 -0.000000  0.006437
  3O   2dx2y2    -0.000000 -0.000002 -0.008408  0.001883 -0.006027 -0.000000
  3O   2dxy      -0.000000  0.000000  0.000114 -0.002963  0.003305  0.000000
  4C   1s         0.000000  0.000000  0.001583  0.017893 -0.000665  0.000000
  4C   2s         0.000000  0.000001  0.003489  0.038343 -0.001515  0.000000
  4C   3s        -0.000000 -0.000002 -0.010307 -0.062143  0.004136 -0.000000
  4C   4s         0.000001  0.000005  0.022493 -0.124542  0.000975 -0.000000
  4C   5s        -0.000000 -0.000006 -0.032714 -0.073030 -0.000453  0.000000
  4C   1pz       -0.021674  0.015541 -0.000003 -0.000000  0.000000 -0.282305
  4C   1px        0.000000  0.000002  0.009597  0.159162 -0.001945  0.000001
  4C   1py        0.000000  0.000004  0.020981  0.000052 -0.004330 -0.000005
  4C   2pz       -0.019413  0.016799 -0.000003 -0.000000 -0.000000 -0.273910
  4C   2px       -0.000000 -0.000000 -0.000632  0.093582 -0.006077  0.000000
  4C   2py       -0.000000  0.000000 -0.001145  0.003394  0.010236 -0.000005
  4C   3pz       -0.012906  0.008262 -0.000001  0.000000 -0.000000 -0.159852
  4C   3px        0.000001  0.000005  0.028527  0.002565 -0.002521  0.000000
  4C   3py       -0.000001 -0.000005 -0.023720 -0.004384  0.003383 -0.000003
  4C   1dz2       0.000001 -0.000000  0.000371 -0.002080 -0.000171 -0.000000
  4C   1dxz      -0.001477 -0.000345 -0.000000  0.000000  0.000000  0.017802
  4C   1dyz      -0.015888  0.015368 -0.000003 -0.000001  0.000000 -0.001656
  4C   1dx2y2     0.000000  0.000001  0.003683 -0.027725  0.000769  0.000000
  4C   1dxy       0.000000  0.000003  0.017346  0.002333 -0.012176  0.000000
  4C   2dz2       0.000001 -0.000001 -0.002723 -0.001350  0.000802 -0.000000
  4C   2dxz      -0.005608  0.001094 -0.000000 -0.000000  0.000001  0.034486
  4C   2dyz      -0.023159  0.022547 -0.000004 -0.000001  0.000000 -0.001824
  4C   2dx2y2     0.000001  0.000003  0.017506 -0.029699 -0.004055  0.000000
  4C   2dxy       0.000000  0.000003  0.017636  0.002553 -0.030578  0.000001
  5C   1s        -0.000000 -0.000000 -0.001583  0.017893 -0.000665 -0.000000
  5C   2s        -0.000000 -0.000001 -0.003489  0.038343 -0.001515 -0.000000
  5C   3s         0.000000  0.000002  0.010307 -0.062144  0.004136  0.000001
  5C   4s        -0.000001 -0.000004 -0.022494 -0.124544  0.000974  0.000002
  5C   5s         0.000000  0.000006  0.032714 -0.073032 -0.000455  0.000005
  5C   1pz        0.021674  0.015540 -0.000004  0.000003 -0.000000 -0.282305
  5C   1px        0.000001  0.000002  0.009597 -0.159164  0.001945 -0.000004
  5C   1py        0.000001  0.000004  0.020981 -0.000052  0.004331 -0.000006
  5C   2pz        0.019413  0.016798 -0.000004  0.000002  0.000000 -0.273910
  5C   2px        0.000000  0.000000 -0.000633 -0.093583  0.006076 -0.000005
  5C   2py        0.000000 -0.000000 -0.001146 -0.003394 -0.010237 -0.000006
  5C   3pz        0.012906  0.008261 -0.000002  0.000000  0.000000 -0.159852
  5C   3px        0.000001  0.000006  0.028527 -0.002566  0.002520 -0.000001
  5C   3py        0.000000 -0.000004 -0.023721  0.004384 -0.003383 -0.000003
  5C   1dz2       0.000001  0.000001 -0.000371 -0.002080 -0.000171  0.000000
[...]
     68      -0.000000  -0.000000  -0.000406   0.000183   0.000000  -0.000000
     69       0.000000  -0.000000   0.000718  -0.000072   0.000000   0.000000
     70      -0.000504  -0.000210  -0.000000   0.000000   0.000575  -0.000865
     71       0.000418   0.000442  -0.000000   0.000000  -0.000286   0.000485
     72       0.002276  -0.001678   0.000000  -0.000000  -0.002751  -0.002823
     73       0.005509  -0.002663   0.000000  -0.000000  -0.003496  -0.004384
     74      -0.008573   0.000489   0.000000  -0.000000  -0.003340   0.000349
     75      -0.011068   0.001125  -0.000000   0.000000  -0.000686   0.001660
     76      -0.002764  -0.001131   0.000000  -0.000000  -0.009014  -0.003539
     77      -0.000000  -0.000001  -0.004314   0.031949   0.000000   0.000001
     78       0.000348   0.004799   0.000000  -0.000000  -0.035157   0.021860
     79       0.018443  -0.005750   0.000000  -0.000000  -0.023278  -0.004595
     80      -0.000000  -0.000001  -0.003614   0.026393   0.000000   0.000000
     81       0.000724   0.003960   0.000000  -0.000000  -0.028261   0.018127
     82       0.015075  -0.004647   0.000000  -0.000000  -0.019488  -0.003629
     83      -0.000000  -0.000001  -0.001469   0.017433   0.000000   0.000000
     84       0.002104   0.001405   0.000000  -0.000000  -0.018387   0.009591
     85       0.007349  -0.001861   0.000000   0.000000  -0.008567   0.000121
     86       0.000283  -0.000128   0.000000  -0.000000  -0.000181  -0.000289
     87      -0.000000  -0.000000  -0.000046   0.000252  -0.000000   0.000000
     88       0.000000   0.000000   0.000114  -0.000357  -0.000000  -0.000000
     89       0.000311  -0.000107   0.000000   0.000000  -0.000662   0.000025
     90       0.000398  -0.000217   0.000000   0.000000   0.000195  -0.000529
     91       0.000427  -0.000280   0.000000   0.000000  -0.000397  -0.000625
     92      -0.000000  -0.000000  -0.000201   0.000955  -0.000000   0.000000
     93       0.000000   0.000000   0.000373  -0.001481  -0.000000  -0.000000
     94       0.000945  -0.000270  -0.000000  -0.000000  -0.001741   0.000566
     95       0.000774  -0.000496   0.000000   0.000000   0.000476  -0.001325
     96      -0.000058  -0.000267   0.000000  -0.000000  -0.003271   0.000167
     97      -0.000096   0.000729   0.000000  -0.000000  -0.006754   0.000279
     98       0.000050  -0.005569  -0.000000   0.000000   0.011217  -0.000275
     99       0.000417  -0.001164  -0.000000   0.000000   0.010061  -0.000638
    100      -0.000073  -0.003309  -0.000000   0.000000   0.023316   0.000919
    101      -0.000000  -0.000000   0.008101  -0.000758  -0.000000  -0.000000
    102      -0.000183  -0.000057   0.000000  -0.000001  -0.024926   0.002108
    103       0.004001   0.000248   0.000000   0.000000   0.002219   0.005285
    104       0.000000  -0.000000   0.006507  -0.000649  -0.000000  -0.000000
    105      -0.000077   0.000582   0.000000  -0.000000  -0.012386   0.002118
    106       0.002151  -0.000306   0.000000  -0.000000   0.000550   0.002379
    107       0.000000  -0.000000   0.002385   0.000021  -0.000000  -0.000000
    108      -0.000032   0.003171   0.000000  -0.000000  -0.011633  -0.000555
    109       0.000691   0.000011  -0.000000   0.000000   0.001349   0.002607
    110       0.000007   0.000207   0.000000   0.000000   0.000233  -0.000001
    111       0.000000  -0.000000   0.000459  -0.000050  -0.000000   0.000000
    112       0.000000   0.000000  -0.000112   0.000128  -0.000000  -0.000000
    113       0.000214   0.000916   0.000000   0.000000   0.000620   0.000215
    114      -0.000151  -0.000075   0.000000   0.000000  -0.000043  -0.001151
    115      -0.000075  -0.000422  -0.000000   0.000000   0.001358  -0.000099
    116       0.000000  -0.000000   0.000649   0.000025   0.000000   0.000000
    117       0.000000   0.000000   0.000025   0.000113  -0.000000  -0.000000
    118      -0.000043   0.001358   0.000000   0.000000  -0.002524  -0.000472
    119      -0.001152  -0.000099   0.000000   0.000000  -0.000471  -0.002481
    120       0.000186   0.000276   0.000000  -0.000000  -0.006858  -0.000996
    121       0.000698  -0.001459   0.000000  -0.000000  -0.012502  -0.001915
    122      -0.002305   0.009049   0.000000   0.000001   0.014486   0.003022
    123       0.001396   0.004371  -0.000000   0.000001   0.022382  -0.000125
    124       0.000705   0.004322   0.000000  -0.000000  -0.009942  -0.001788
    125       0.000000   0.000000  -0.004603   0.001582   0.000000  -0.000001
    126       0.003295  -0.002211  -0.000000  -0.000000   0.001043  -0.001248
    127      -0.016025   0.001751  -0.000000  -0.000000   0.002102   0.017622
    128       0.000000   0.000000  -0.003739   0.000438   0.000000  -0.000000
    129       0.000908  -0.000470  -0.000000   0.000000   0.005402   0.000912
    130      -0.006068   0.000162  -0.000000  -0.000000   0.000342   0.007818
    131      -0.000000   0.000000  -0.001705  -0.000823   0.000000  -0.000000
    132       0.000070   0.002910   0.000000  -0.000000  -0.012848  -0.000556
    133       0.002601  -0.000277  -0.000000  -0.000000   0.000468   0.001157
    134       0.000209  -0.000255  -0.000000  -0.000000  -0.000360  -0.000225
    135      -0.000000  -0.000000   0.000429  -0.000121  -0.000000   0.000000
    136      -0.000000  -0.000000   0.000064   0.002404   0.000000   0.000000
    137       0.000037  -0.000426  -0.000000   0.000000   0.004669  -0.000527
    138       0.002169  -0.000188   0.000000   0.000000  -0.000435   0.000010
    139      -0.000188   0.000698  -0.000000  -0.000000  -0.000175   0.000257
    140       0.000000  -0.000000   0.000727   0.000271  -0.000000  -0.000000
    141       0.000000  -0.000000   0.000271   0.004632   0.000000   0.000000
    142      -0.000435  -0.000175  -0.000000   0.000000   0.011327   0.000641
    143       0.000010   0.000257  -0.000000   0.000000   0.000641   0.003290


-------
TIMINGS
-------

Total SCF time: 0 days 0 hours 0 min 4 sec 

Total time                  ....       4.596 sec
Sum of individual times     ....       4.500 sec  ( 97.9%)

SCF preparation             ....       0.251 sec  (  5.5%)
Fock matrix formation       ....       3.336 sec  ( 72.6%)
  Startup                   ....       0.169 sec  (  5.1% of F)
  Split-RI-J                ....       0.456 sec  ( 13.7% of F)
  Chain of spheres X        ....       1.641 sec  ( 49.2% of F)
  XC integration            ....       0.739 sec  ( 22.2% of F)
    Basis function eval.    ....       0.091 sec  ( 12.3% of XC)
    Density eval.           ....       0.048 sec  (  6.5% of XC)
    XC-Functional eval.     ....       0.011 sec  (  1.5% of XC)
    XC-Potential eval.      ....       0.073 sec  (  9.9% of XC)
Diagonalization             ....       0.000 sec  (  0.0%)
Density matrix formation    ....       0.215 sec  (  4.7%)
Total Energy calculation    ....       0.176 sec  (  3.8%)
Population analysis         ....       0.000 sec  (  0.0%)
Orbital Transformation      ....       0.038 sec  (  0.8%)
Orbital Orthonormalization  ....       0.000 sec  (  0.0%)
DIIS solution               ....       0.296 sec  (  6.4%)
  MO trafo                  ....       0.000 sec  (  0.0 % of DIIS)
  Orb grad                  ....       0.000 sec  (  0.0 % of DIIS)
  Energy W gradient         ....       0.000 sec  (  0.0 % of DIIS)
  DIIS error                ....       0.028 sec  (  9.5 % of DIIS)
  DIIS work                 ....       0.175 sec  ( 59.1 % of DIIS)
  Form Q                    ....       0.000 sec  (  0.0 % of DIIS)
  Form QpQm                 ....       0.000 sec  (  0.0 % of DIIS)
  Exp/Cayley                ....       0.000 sec  (  0.0 % of DIIS)
  Orb update                ....       0.000 sec  (  0.0 % of DIIS)
  Wake-sleep                ....       0.072 sec  ( 24.3 % of DIIS)
SOSCF solution              ....       0.188 sec  (  4.1%)
  MO trafo                  ....       0.090 sec  ( 47.9 % of SOSCF)
  Orb grad                  ....       0.029 sec  ( 15.4 % of SOSCF)
  Rot update                ....       0.008 sec  (  4.3 % of SOSCF)
  Step                      ....       0.061 sec  ( 32.4 % of SOSCF)
Finished LeanSCF after   4.6 sec

Maximum memory used throughout the entire LEANSCF-calculation: 11.6 MB


-------------------------------------------------------------------------------
                          DFT DISPERSION CORRECTION                            
                                                                               
                              DFTD3 V3.1  Rev 1                                
                          USING Becke-Johnson damping                          
-------------------------------------------------------------------------------
The B3LYP functional is recognized
Active option DFTDOPT                   ...         4   

C6 coefficients used: 
	5 C6 for element 	 6
Z=6  CN=    0.000000  	 C6(AA)=   49.113000
Z=6  CN=    0.986800  	 C6(AA)=   43.245200
Z=6  CN=    1.998500  	 C6(AA)=   29.360200
Z=6  CN=    2.998700  	 C6(AA)=   25.780900
Z=6  CN=    3.984400  	 C6(AA)=   18.206700
	3 C6 for element 	 8
Z=8  CN=    0.000000  	 C6(AA)=   15.505900
Z=8  CN=    0.992500  	 C6(AA)=   12.816100
Z=8  CN=    1.988700  	 C6(AA)=   10.370800

  #           XYZ [au]              r0(AA) [Ang.]  CN      C6(AA)     C8(AA)    C10(AA) [au]
  1    2.69148    2.17679   -0.00006  o   1.241   1.038      12.8      257.9     6376.0
  2   -2.69142   -2.17672    0.00008  o   1.241   1.038      12.8      257.9     6376.0
  3    2.53371   -2.01515    0.00002  o   1.241   1.054      12.8      257.7     6369.4
  4   -2.53363    2.01520   -0.00002  o   1.241   1.054      12.8      257.7     6369.4
  5    1.39135   -0.01166   -0.00002  c   1.455   3.044      25.6      739.9    26215.0
  6   -1.39127    0.01172    0.00000  c   1.455   3.044      25.6      739.9    26215.0

molecular C6(AA) [au] = 589.662907 


            DFT-D V3
 parameters
 s6 scaling factor         :     1.0000 
 a1 scaling factor         :     0.3981 
 s8 scaling factor         :     1.9889 
 a2 scaling factor         :     4.4211 
 ad hoc parameters k1-k3   :    16.0000     1.3333    -4.0000 

 Edisp/kcal,au: -4.407220280478  -0.007023351826 
 E6   /kcal   :  -2.013086708 
 E8   /kcal   :  -2.394133573 
 % E8         :  54.322984110 

-------------------------   ----------------
Dispersion correction           -0.007023352
-------------------------   ----------------


-------------------------   --------------------
FINAL SINGLE POINT ENERGY      -376.907867340323
-------------------------   --------------------



           ************************************************************
           *        Program running with 20 parallel MPI-processes    *
           *              working on a common directory               *
           ************************************************************

------------------------------------------------------------------------------
                              ORCA PROPERTY CALCULATIONS
------------------------------------------------------------------------------

GBWName                                 ... D:\hty\creat\code\github\orcacal\Goble\..\Test\ORCA_cal\ORCA_structure\Oxalic_acid_1\input.gbw
Number of atoms                         ...      6
Number of basis functions               ...    144
Max core memory                         ...   2000 MB

Electric properties:
Dipole moment                           ... YES
Quadrupole moment                       ...  NO
Static polarizability (Dipole/Dipole)   ...  NO
Static polarizability (Dipole/Quad.)    ...  NO
Static polarizability (Quad./Quad.)     ...  NO
Static polarizability (Velocity)        ...  NO

Atomic electric properties:
Dipole moment                           ...  NO
Quadrupole moment                       ...  NO
Static polarizability                   ...  NO

Choice of electric origin               ... Center of mass
Position of electric origin             ...     0.000034     0.000032     0.000001

General magnetic properties:
Magnetizability                         ...  NO

EPR properties:
g-Tensor (aka g-matrix)                 ...  NO
Zero-Field splitting spin-orbit         ...  NO
Zero-field splitting spin-spin          ...  NO
Hyperfine couplings                     ...  NO (   0 nuclei)
Quadrupole couplings                    ...  NO (   0 nuclei)
Contact density                         ...  NO (   0 nuclei)

NMR properties:
Chemical shifts                         ...  NO (   0 nuclei)
Spin-rotation constants                 ...  NO (   0 nuclei)
Spin-spin couplings                     ...  NO (   0 nuclei,    0 pairs)

Choice of magnetic origin               ... GIAO
Position of magnetic origin             ...     0.000000     0.000000     0.000000

Properties with geometric perturbations:
SCF Hessian                             ...  NO
IR spectrum                             ...  NO
VCD spectrum                            ...  NO
X-ray spectroscopy properties:
SCF XES/XAS/RIXS spectra                ...  NO


-------------
DIPOLE MOMENT
-------------

Method             : SCF
Type of density    : Electron Density
Multiplicity       :   1
Irrep              :   0
Energy             :  -376.9008439884971722 Eh
Relativity type    : 
Basis              : AO
                                X                 Y                 Z
Electronic contribution:      0.000002596      -0.000011217      -0.000012359
Nuclear contribution   :     -0.000000040       0.000000040       0.000000121
                        -----------------------------------------
Total Dipole Moment    :      0.000002556      -0.000011177      -0.000012238
                        -----------------------------------------
Magnitude (a.u.)       :      0.000016769
Magnitude (Debye)      :      0.000042624



--------------------
Rotational spectrum 
--------------------
 
Rotational constants in cm-1:             0.215910             0.123755             0.078666 
Rotational constants in MHz :          6472.814729          3710.080802          2358.333697 

Dipole components along the rotational axes: 
x,y,z [a.u.] :     0.000001    -0.000011    -0.000012 
x,y,z [Debye]:     0.000003    -0.000029    -0.000031 

 

Dipole moment calculation done in   0.0 sec 

Maximum memory used throughout the entire PROP-calculation: 5.7 MB

--------------------------------
SUGGESTED CITATIONS FOR THIS RUN
--------------------------------

Below you find a list of papers that are relevant to this ORCA run
We neither can nor want to force you to cite these papers, but we appreciate if you do
You receive ORCA, which is the product of decades of hard work by many enthusiastic individuals, for free
The only thing we kindly ask in return is that you cite our papers,
We deeply appreciate it, if you show your appreciation for ORCA by not just citing the generic ORCA reference.

Please note that relegating all ORCA citations to the supporting information does *not* help us.
SI sections are not indexed - citations you put there will not count into any citation statistics
But we need these citations in order to attract the funding resources that allow us to do what we are doing

Therefore, if you are a happy ORCA user, please consider citing a few of the papers listed below in the main body of your paper

In addition to the list printed below, the program has created the file D:\hty\creat\code\github\orcacal\Goble\..\Test\ORCA_cal\ORCA_structure\Oxalic_acid_1\input.bibtex that contains the list in bibtex format
You can import this file easily into all common literature databanks and citation aid programs


List of essential papers. We consider these as the minimum necessary citations

  1. Neese,F.
     Software update: the ORCA program system, version 5.0
     WIRES Comput. Molec. Sci., 2022 12(1)e1606
     doi.org/10.1002/wcms.1606

List of papers to cite with high priority. The work reported in these papers was absolutely
necessary for this run to complete.
Our perspective: the developers of density functionals and basis sets usually get cited in chemistry papers
Good! But without the algorithms to do something with them, the functionals or basis sets would not do anything.
Hence, in our opinion, the algorithm design and method developments papers are equally worthy of getting cited

  1. Neese,F.
     An improvement of the resolution of the identity approximation for the formation of the Coulomb matrix
     J. Comp. Chem., 2003 24(14)1740-1747
     doi.org/10.1002/jcc.10318
  2. Neese,F.; Wennmohs,F.; Hansen,A.; Becker,U.
     Efficient, approximate and parallel Hartree-Fock and hybrid DFT calculations. A 'chain-of-spheres' algorithm for the Hartree-Fock exchange
     Chem. Phys., 2009 356(1-3)98-109
     doi.org/10.1016/j.chemphys.2008.10.036
  3. Helmich-Paris,B.; de Souza,B.; Neese,F.; Izsák,R.
     An improved chain of spheres for exchange algorithm
     J. Chem. Phys., 2021 155 104109
     doi.org/doi: 10.1063/5.0058766.
  4. Neese,F.
     The SHARK Integral Generation and Digestion System
     J. Comp. Chem., 2022  1-16
     doi.org/10.1002/jcc.26942
  5. Grimme,S.; Antony,J.; Ehrlich,S.; Krieg,H.
     A consistent and accurate ab initio parametrization of density functional dispersion correction (DFT-D) for the 94 elements H-Pu
     J. Chem. Phys., 2010 132 154104-XXXX
     doi.org/10.1063/1.3382344
  6. Grimme,S.; Ehrlich,S.; Goerigk,L.
     Effect of the damping function in dispersion corrected density functional theory
     J. Comput. Chem., 2011 32(7)1456-1465
     doi.org/10.1002/jcc.21759

List of suggested additional citations. These are papers that are important in the 'surrounding' of 
of this run, or papers that preceded the highly important papers. If you like your results we are grateful for a citation.

  1. Izsak,R.; Neese,F.
     An overlap fitted chain of spheres exchange method
     J. Chem. Phys., 2011 135 144105
     doi.org/10.1063/1.3646921
  2. Izsak,R.; Hansen,A.; Neese,F.
     The resolution of identity and chain of spheres approximations for the LPNO-CCSD singles Fock term
     Molec. Phys., 2012 110 2413-2417
     doi.org/10.1080/00268976.2012.687466
  3. Neese,F.
     The ORCA program system
     WIRES Comput. Molec. Sci., 2012 2(1)73-78
     doi.org/10.1002/wcms.81
  4. Izsak,R.; Neese,F.; Klopper,W.
     Robust fitting techniques in the chain of spheres approximation to the Fock exchange: The role of the complementary space
     J. Chem. Phys., 2013 139 
     doi.org/10.1063/1.4819264
  5. Neese,F.
     Software update: the ORCA program system, version 4.0
     WIRES Comput. Molec. Sci., 2018 8(1)1-6
     doi.org/10.1002/wcms.1327
  6. Neese,F.; Wennmohs,F.; Becker,U.; Riplinger,C.
     The ORCA quantum chemistry program package
     J. Chem. Phys., 2020 152 Art. No. L224108
     doi.org/10.1063/5.0004608

List of optional additional citations

  1. Neese,F.
     Approximate second-order SCF convergence for spin unrestricted wavefunctions
     Chem. Phys. Lett., 2000 325(1-3)93-98
     doi.org/10.1016/s0009-2614(00)00662-x

Timings for individual modules:

Sum of individual times          ...        7.308 sec (=   0.122 min)
Startup calculation              ...        0.958 sec (=   0.016 min)  13.1 %
SCF iterations                   ...        5.843 sec (=   0.097 min)  80.0 %
Property calculations            ...        0.507 sec (=   0.008 min)   6.9 %
                             ****ORCA TERMINATED NORMALLY****
TOTAL RUN TIME: 0 days 0 hours 0 minutes 8 seconds 301 msec
